<?xml version="1.0"?>
<VTKFile type="UnstructuredGrid"  version="0.1"  >
<UnstructuredGrid>
<Piece  NumberOfPoints="5020" NumberOfCells="7838">
<Points>
<DataArray  type="Float64"  NumberOfComponents="3"  format="ascii">0 0.01 0  0 0 0  0.01 0 0  0.02 0 0  0.03 0 0  0.04 0 0  0.05 0 0  0.06 0 0  0.07000000000000001 0 0  0.08 0 0  0.09 0 0  0.1 0 0  0.11 0 0  0.12 0 0  0.13 0 0  0.14 0 0  0.15 0 0  0.16 0 0  0.17 0 0  0.18 0 0  0.19 0 0  0.2 0 0  0.21 0 0  0.22 0 0  0.23 0 0  0.24 0 0  0.25 0 0  0.26 0 0  0.27 0 0  0.28 0 0  0.29 0 0  0.3 0 0  0.31 0 0  0.32 0 0  0.33 0 0  0.34 0 0  0.35 0 0  0.36 0 0  0.37 0 0  0.38 0 0  0.39 0 0  0.4 0 0  0.41 0 0  0.42 0 0  0.43 0 0  0.44 0 0  0.45 0 0  0.46 0 0  0.47 0 0  0.48 0 0  0.49 0 0  0.5 0 0  0.51 0 0  0.52 0 0  0.53 0 0  0.54 0 0  0.55 0 0  0.5600000000000001 0 0  0.57 0 0  0.58 0 0  0.59 0 0  0.6 0 0  0.61 0 0  0.62 0 0  0.63 0 0  0.64 0 0  0.65 0 0  0.66 0 0  0.67 0 0  0.68 0 0  0.6899999999999999 0 0  0.7 0 0  0.71 0 0  0.72 0 0  0.73 0 0  0.74 0 0  0.75 0 0  0.76 0 0  0.77 0 0  0.78 0 0  0.79 0 0  0.8 0 0  0.8100000000000001 0 0  0.82 0 0  0.83 0 0  0.84 0 0  0.85 0 0  0.86 0 0  0.87 0 0  0.88 0 0  0.89 0 0  0.9 0 0  0.91 0 0  0.92 0 0  0.93 0 0  0.9399999999999999 0 0  0.95 0 0  0.96 0 0  0.97 0 0  0.98 0 0  0.99 0 0  1 0 0  1.01 0 0  1.02 0 0  1.03 0 0  1.04 0 0  1.05 0 0  1.06 0 0  1.07 0 0  1.08 0 0  1.09 0 0  1.1 0 0  1.11 0 0  1.12 0 0  1.13 0 0  1.14 0 0  1.15 0 0  1.16 0 0  1.17 0 0  1.18 0 0  1.19 0 0  1.2 0 0  1.21 0 0  1.22 0 0  1.23 0 0  1.24 0 0  1.25 0 0  1.26 0 0  1.27 0 0  1.28 0 0  1.29 0 0  1.3 0 0  1.31 0 0  1.32 0 0  1.33 0 0  1.34 0 0  1.35 0 0  1.36 0 0  1.37 0 0  1.38 0 0  1.39 0 0  1.4 0 0  1.41 0 0  1.42 0 0  1.43 0 0  1.44 0 0  1.45 0 0  1.46 0 0  1.47 0 0  1.48 0 0  1.49 0 0  1.5 0 0  1.51 0 0  1.52 0 0  1.53 0 0  1.54 0 0  1.55 0 0  1.56 0 0  1.57 0 0  1.58 0 0  1.59 0 0  1.6 0 0  1.61 0 0  1.62 0 0  1.63 0 0  1.64 0 0  1.65 0 0  1.66 0 0  1.67 0 0  1.68 0 0  1.69 0 0  1.7 0 0  1.71 0 0  1.72 0 0  1.73 0 0  1.74 0 0  1.75 0 0  1.76 0 0  1.77 0 0  1.78 0 0  1.79 0 0  1.8 0 0  1.81 0 0  1.82 0 0  1.83 0 0  1.84 0 0  1.85 0 0  1.86 0 0  1.87 0 0  1.88 0 0  1.89 0 0  1.9 0 0  1.91 0 0  1.92 0 0  1.93 0 0  1.94 0 0  1.95 0 0  1.96 0 0  1.97 0 0  1.98 0 0  1.99 0 0  2 0 0  2.01 0 0  2.02 0 0  2.03 0 0  2.04 0 0  2.05 0 0  2.06 0 0  2.07 0 0  2.08 0 0  2.09 0 0  2.1 0 0  2.11 0 0  2.12 0 0  2.13 0 0  2.14 0 0  2.15 0 0  2.16 0 0  2.17 0 0  2.18 0 0  2.19 0 0  2.2 0 0  2.21 0 0  2.22 0 0  2.23 0 0  2.24 0 0  2.25 0 0  2.26 0 0  2.27 0 0  2.28 0 0  2.29 0 0  2.3 0 0  2.31 0 0  2.32 0 0  2.33 0 0  2.34 0 0  2.35 0 0  2.36 0 0  2.37 0 0  2.38 0 0  2.39 0 0  2.4 0 0  2.41 0 0  2.42 0 0  2.43 0 0  2.44 0 0  2.45 0 0  2.46 0 0  2.47 0 0  2.48 0 0  2.49 0 0  2.5 0 0  2.51 0 0  2.52 0 0  2.53 0 0  2.54 0 0  2.55 0 0  2.56 0 0  2.57 0 0  2.58 0 0  2.59 0 0  2.6 0 0  2.61 0 0  2.62 0 0  2.63 0 0  2.64 0 0  2.65 0 0  2.66 0 0  2.67 0 0  2.68 0 0  2.69 0 0  2.7 0 0  2.71 0 0  2.72 0 0  2.73 0 0  2.74 0 0  2.75 0 0  2.76 0 0  2.77 0 0  2.78 0 0  2.79 0 0  2.8 0 0  2.81 0 0  2.82 0 0  2.83 0 0  2.84 0 0  2.85 0 0  2.86 0 0  2.87 0 0  2.88 0 0  2.89 0 0  2.9 0 0  2.91 0 0  2.92 0 0  2.93 0 0  2.94 0 0  2.95 0 0  2.96 0 0  2.97 0 0  2.98 0 0  2.99 0 0  3 0 0  3.01 0 0  3.02 0 0  3.03 0 0  3.04 0 0  3.05 0 0  3.06 0 0  3.07 0 0  3.08 0 0  3.09 0 0  3.1 0 0  3.11 0 0  3.12 0 0  3.13 0 0  3.14 0 0  3.15 0 0  3.16 0 0  3.17 0 0  3.18 0 0  3.19 0 0  3.2 0 0  3.21 0 0  3.22 0 0  3.23 0 0  3.24 0 0  3.25 0 0  3.26 0 0  3.27 0 0  3.28 0 0  3.29 0 0  3.3 0 0  3.31 0 0  3.32 0 0  3.33 0 0  3.34 0 0  3.35 0 0  3.36 0 0  3.37 0 0  3.38 0 0  3.39 0 0  3.4 0 0  3.41 0 0  3.42 0 0  3.43 0 0  3.44 0 0  3.45 0 0  3.46 0 0  3.47 0 0  3.48 0 0  3.49 0 0  3.5 0 0  3.51 0 0  3.52 0 0  3.53 0 0  3.54 0 0  3.55 0 0  3.56 0 0  3.57 0 0  3.58 0 0  3.59 0 0  3.6 0 0  3.61 0 0  3.62 0 0  3.63 0 0  3.64 0 0  3.65 0 0  3.66 0 0  3.67 0 0  3.68 0 0  3.69 0 0  3.7 0 0  3.71 0 0  3.72 0 0  3.73 0 0  3.74 0 0  3.75 0 0  3.76 0 0  3.77 0 0  3.78 0 0  3.79 0 0  3.8 0 0  3.81 0 0  3.82 0 0  3.83 0 0  3.84 0 0  3.85 0 0  3.86 0 0  3.87 0 0  3.88 0 0  3.89 0 0  3.9 0 0  3.91 0 0  3.92 0 0  3.93 0 0  3.94 0 0  3.95 0 0  3.96 0 0  3.97 0 0  3.98 0 0  3.99 0 0  4 0 0  4.01 -0.007853658655910169 0  4.02 -0.01570537953906381 0  4.03 -0.02355322535482153 0  4.04 -0.03139525976465671 0  4.05 -0.03922954786392233 0  4.06 -0.04705415665925685 0  4.07 -0.05486715554552286 0  4.08 -0.06266661678215218 0  4.09 -0.07045061596879122 0  4.1 -0.07821723252011516 0  4.11 -0.08596455013970501 0  4.12 -0.09369065729286238 0  4.13 -0.1013936476782562 0  4.14 -0.109071620698271 0  4.15 -0.116722681927953 0  4.16 -0.1243449435824275 0  4.17 -0.1319365249826864 0  4.18 -0.1394955530196144 0  4.19 -0.1470201626161523 0  4.2 -0.1545084971874738 0  4.21 -0.1619587090990747 0  4.22 -0.1693689601226455 0  4.23 -0.1767374218896289 0  4.24 -0.1840622763423391 0  4.25 -0.1913417161825449 0  4.26 -0.1985739453173901 0  4.27 -0.2057571793025541 0  4.28 -0.2128896457825365 0  4.29 -0.2199695849279576 0  4.3 -0.2269952498697733 0  4.31 -0.2339649071302864 0  4.32 -0.2408768370508579 0  4.33 -0.2477293342162038 0  4.34 -0.2545207078751855 0  4.35 -0.2612492823579742 0  4.36 -0.2679133974894985 0  4.37 -0.274511408999066 0  4.38 -0.2810416889260652 0  4.39 -0.2875026260216391 0  4.4 -0.2938926261462368 0  4.41 -0.3002101126629421 0  4.42 -0.3064535268264882 0  4.43 -0.3126213281678524 0  4.44 -0.3187119948743451 0  4.45 -0.3247240241650919 0  4.46 -0.3306559326618259 0  4.47 -0.3365062567548865 0  4.48 -0.3422735529643445 0  4.49 -0.3479563982961573 0  4.5 -0.3535533905932737 0  4.51 -0.3590631488815943 0  4.52 -0.3644843137107056 0  4.53 -0.369815547489305 0  4.54 -0.3750555348152298 0  4.55 -0.3802029828000154 0  4.56 -0.3852566213878944 0  4.57 -0.390215203669165 0  4.58 -0.3950775061878452 0  4.59 -0.3998423292435452 0  4.6 -0.4045084971874736 0  4.61 -0.4090748587125118 0  4.62 -0.413540287137281 0  4.63 -0.4179036806841351 0  4.64 -0.4221639627510074 0  4.65 -0.4263200821770463 0  4.66 -0.4303710135019718 0  4.67 -0.4343157572190955 0  4.68 -0.4381533400219317 0  4.69 -0.4418828150443468 0  4.7 -0.4455032620941839 0  4.71 -0.4490137878803078 0  4.72 -0.4524135262330097 0  4.73 -0.4557016383177228 0  4.74 -0.4588773128419906 0  4.75 -0.4619397662556434 0  4.76 -0.4648882429441256 0  4.77 -0.4677220154149335 0  4.78 -0.4704403844771128 0  4.79 -0.4730426794137726 0  4.8 -0.4755282581475768 0  4.81 -0.477896507399165 0  4.82 -0.4801468428384716 0  4.83 -0.482278709228899 0  4.84 -0.4842915805643155 0  4.85 -0.4861849601988382 0  4.86 -0.4879583809693738 0  4.87 -0.4896114053108829 0  4.88 -0.4911436253643443 0  4.89 -0.4925546630773869 0  4.9 -0.4938441702975689 0  4.91 -0.4950118288582788 0  4.92 -0.4960573506572389 0  4.93 -0.4969804777275898 0  4.94 -0.4977809823015401 0  4.95 -0.498458666866564 0  4.96 -0.4990133642141358 0  4.97 -0.499444937480985 0  4.98 -0.4997532801828658 0  4.99 -0.4999383162408303 0  5 -0.5 0  5.01 -0.4999383162408303 0  5.02 -0.4997532801828658 0  5.03 -0.499444937480985 0  5.04 -0.4990133642141358 0  5.05 -0.498458666866564 0  5.06 -0.4977809823015401 0  5.07 -0.4969804777275898 0  5.08 -0.4960573506572389 0  5.09 -0.4950118288582788 0  5.1 -0.4938441702975689 0  5.11 -0.4925546630773869 0  5.12 -0.4911436253643443 0  5.13 -0.4896114053108829 0  5.14 -0.4879583809693738 0  5.15 -0.4861849601988382 0  5.16 -0.4842915805643155 0  5.17 -0.4822787092288991 0  5.18 -0.4801468428384716 0  5.19 -0.477896507399165 0  5.2 -0.4755282581475768 0  5.21 -0.4730426794137727 0  5.22 -0.4704403844771128 0  5.23 -0.4677220154149336 0  5.24 -0.4648882429441257 0  5.25 -0.4619397662556434 0  5.26 -0.4588773128419906 0  5.27 -0.4557016383177228 0  5.28 -0.4524135262330097 0  5.29 -0.4490137878803078 0  5.3 -0.4455032620941841 0  5.31 -0.4418828150443468 0  5.32 -0.4381533400219317 0  5.33 -0.4343157572190956 0  5.34 -0.4303710135019719 0  5.35 -0.4263200821770463 0  5.36 -0.4221639627510075 0  5.37 -0.4179036806841351 0  5.38 -0.413540287137281 0  5.39 -0.4090748587125119 0  5.4 -0.4045084971874736 0  5.41 -0.3998423292435452 0  5.42 -0.3950775061878453 0  5.43 -0.390215203669165 0  5.44 -0.3852566213878945 0  5.45 -0.3802029828000154 0  5.46 -0.3750555348152299 0  5.47 -0.369815547489305 0  5.48 -0.3644843137107056 0  5.49 -0.3590631488815942 0  5.5 -0.3535533905932738 0  5.51 -0.3479563982961574 0  5.52 -0.3422735529643446 0  5.53 -0.3365062567548867 0  5.54 -0.3306559326618259 0  5.55 -0.3247240241650921 0  5.56 -0.3187119948743451 0  5.57 -0.3126213281678525 0  5.58 -0.3064535268264882 0  5.59 -0.3002101126629422 0  5.6 -0.2938926261462368 0  5.61 -0.2875026260216392 0  5.62 -0.2810416889260652 0  5.63 -0.274511408999066 0  5.64 -0.2679133974894985 0  5.65 -0.2612492823579743 0  5.66 -0.2545207078751855 0  5.67 -0.2477293342162039 0  5.68 -0.2408768370508578 0  5.69 -0.2339649071302865 0  5.7 -0.2269952498697732 0  5.71 -0.2199695849279577 0  5.72 -0.2128896457825364 0  5.73 -0.2057571793025542 0  5.74 -0.1985739453173901 0  5.75 -0.1913417161825449 0  5.76 -0.1840622763423393 0  5.77 -0.1767374218896289 0  5.78 -0.1693689601226457 0  5.79 -0.1619587090990747 0  5.8 -0.154508497187474 0  5.81 -0.1470201626161523 0  5.82 -0.1394955530196146 0  5.83 -0.1319365249826864 0  5.84 -0.1243449435824276 0  5.85 -0.116722681927953 0  5.86 -0.1090716206982712 0  5.87 -0.1013936476782562 0  5.88 -0.09369065729286251 0  5.89 -0.08596455013970501 0  5.9 -0.07821723252011527 0  5.91 -0.07045061596879121 0  5.92 -0.06266661678215227 0  5.93 -0.05486715554552282 0  5.94 -0.04705415665925695 0  5.95 -0.03922954786392231 0  5.96 -0.03139525976465679 0  5.97 -0.02355322535482148 0  5.98 -0.0157053795390639 0  5.99 -0.007853658655910133 0  6 -6.123233995736766e-17 0  6.01 0 0  6.02 0 0  6.03 0 0  6.04 0 0  6.05 0 0  6.06 0 0  6.07 0 0  6.08 0 0  6.09 0 0  6.1 0 0  6.11 0 0  6.12 0 0  6.13 0 0  6.14 0 0  6.15 0 0  6.16 0 0  6.17 0 0  6
[...]
<PointData  Scalars="f_2104"> 
<DataArray  type="Float64"  Name="f_2104"  format="ascii">1.0000000000000000e+00  1.0000000000000000e+00  9.7600677761781818e-01  9.5863347006051336e-01  9.4397942505595966e-01  9.3129840380783002e-01  9.2047408862816416e-01  9.1065038794988784e-01  9.0165694969066090e-01  8.9344112347023785e-01  8.8591864178551039e-01  8.7887095813269811e-01  8.7226335663782573e-01  8.6603610603344527e-01  8.6013546016951070e-01  8.5458326448794264e-01  8.4932277666561395e-01  8.4427023830311909e-01  8.3940435280444947e-01  8.3476382682711769e-01  8.3030330048434553e-01  8.2601628606266431e-01  8.2189320357157436e-01  8.1796063547621078e-01  8.1418504102890310e-01  8.1048680555835451e-01  8.0693877064813269e-01  8.0350807389091683e-01  8.0017642029510228e-01  7.9693263627956412e-01  7.9379980759640745e-01  7.9074841054474410e-01  7.8777546083324534e-01  7.8487383262763688e-01  7.8206542680724778e-01  7.7932303196752339e-01  7.7661089082143042e-01  7.7398490344912640e-01  7.7141952466623964e-01  7.6892610998192024e-01  7.6648175999128865e-01  7.6410218442825395e-01  7.6176282658652350e-01  7.5945828904037271e-01  7.5718132903235069e-01  7.5495560403429152e-01  7.5275974060436091e-01  7.5060941599406950e-01  7.4849611145851314e-01  7.4642602333272179e-01  7.4439698856315939e-01  7.4242340049914834e-01  7.4048747289279293e-01  7.3856771681456013e-01  7.3668789188685835e-01  7.3483262000114036e-01  7.3301686067753602e-01  7.3122442705368851e-01  7.2945623833072526e-01  7.2770620421744414e-01  7.2599605333989159e-01  7.2430864209708723e-01  7.2264748106151522e-01  7.2100655506037159e-01  7.1939738899015748e-01  7.1780618871924051e-01  7.1622573098339948e-01  7.1467467547515273e-01  7.1313750606075876e-01  7.1161592118308459e-01  7.1011030966559741e-01  7.0863172118977580e-01  7.0716710539466288e-01  7.0572482202840892e-01  7.0429514893503564e-01  7.0288170298676367e-01  7.0148188450837723e-01  7.0010354871176894e-01  6.9873514350390975e-01  6.9739205464613863e-01  6.9606110890989092e-01  6.9474473495281475e-01  6.9343965739828883e-01  6.9214122593890837e-01  6.9086271774722507e-01  6.8959224908737715e-01  6.8833885049014720e-01  6.8709908196722280e-01  6.8588034040460610e-01  6.8467205128213771e-01  6.8348495747385252e-01  6.8230727529023749e-01  6.8114113547212285e-01  6.7998339336001690e-01  6.7883049485954894e-01  6.7769344602948089e-01  6.7656155928802331e-01  6.7543842045170721e-01  6.7432215839760301e-01  6.7322168152233486e-01  6.7212685498014069e-01  6.7103347776313305e-01  6.6995197703959442e-01  6.6887291965839812e-01  6.6780603852809151e-01  6.6674219754658370e-01  6.6568185346712727e-01  6.6462542120871759e-01  6.6358231306034654e-01  6.6254280099999041e-01  6.6150470887761881e-01  6.6047958919238026e-01  6.5945825658483503e-01  6.5844926684793992e-01  6.5744397249805875e-01  6.5644120717203480e-01  6.5545128767427907e-01  6.5446468781717704e-01  6.5348071463064050e-01  6.5250206668790744e-01  6.5153559667578964e-01  6.5057356335435357e-01  6.4962191830852878e-01  6.4867077541677542e-01  6.4772817026874385e-01  6.4678558169817657e-01  6.4584779795028191e-01  6.4491296574984325e-01  6.4398075399025967e-01  6.4306042212023173e-01  6.4214315522567544e-01  6.4123970572425815e-01  6.4034085812068275e-01  6.3944988550303994e-01  6.3856421220743054e-01  6.3767995543099776e-01  6.3680391088520216e-01  6.3592988683211249e-01  6.3506509466813643e-01  6.3420128070800796e-01  6.3334377538000486e-01  6.3248880511106864e-01  6.3163806668140687e-01  6.3079111027673163e-01  6.2995383970859908e-01  6.2911922401630638e-01  6.2828490251241309e-01  6.2745730804078725e-01  6.2663064953834724e-01  6.2581242157637951e-01  6.2499451961026509e-01  6.2417987242106654e-01  6.2336529964488430e-01  6.2255780878736888e-01  6.2175047360573754e-01  6.2094586625326231e-01  6.2014150929877787e-01  6.1933794871963987e-01  6.1854162872618257e-01  6.1774556649012069e-01  6.1695229255950379e-01  6.1616254317351637e-01  6.1538058626355163e-01  6.1459987976997443e-01  6.1382007187567178e-01  6.1304766676062106e-01  6.1227534878236067e-01  6.1151145601182733e-01  6.1074819837344207e-01  6.0998968754149807e-01  6.0923426669689107e-01  6.0848687867727058e-01  6.0773961838349566e-01  6.0699290274657680e-01  6.0625424170293019e-01  6.0551694212958729e-01  6.0478239193241068e-01  6.0404955341087296e-01  6.0332417382264525e-01  6.0259952892557922e-01  6.0187433125828915e-01  6.0115464572966226e-01  6.0043541477048534e-01  5.9972158966164213e-01  5.9900602490275368e-01  5.9828810138727517e-01  5.9757562096177930e-01  5.9686236428702566e-01  5.9615303571859735e-01  5.9544294823933774e-01  5.9473465346791587e-01  5.9402797994270284e-01  5.9332746516814849e-01  5.9262583595639196e-01  5.9192241581706095e-01  5.9122452402334469e-01  5.9052617974014920e-01  5.8983120359060059e-01  5.8913682134964918e-01  5.8844337153619108e-01  5.8775681197537699e-01  5.8707079284672958e-01  5.8638606398150717e-01  5.8570171439440177e-01  5.8502143940001861e-01  5.8433835019611768e-01  5.8365286365735225e-01  5.8297331080855774e-01  5.8229384283130270e-01  5.8161895028015564e-01  5.8094493510694567e-01  5.8027292509876538e-01  5.7960315397907258e-01  5.7893805849587732e-01  5.7827205696818751e-01  5.7761083451560213e-01  5.7694810796686502e-01  5.7628794102560144e-01  5.7562738574875194e-01  5.7496765299124841e-01  5.7430890748010988e-01  5.7365503565397302e-01  5.7300066884201428e-01  5.7235093466858700e-01  5.7169894608641914e-01  5.7104422177379344e-01  5.7039269596132036e-01  5.6973881558016060e-01  5.6908444286994186e-01  5.6843070315153998e-01  5.6778345507037054e-01  5.6713631463901137e-01  5.6648805991670403e-01  5.6584664729472545e-01  5.6520681090162528e-01  5.6456673105641708e-01  5.6393098300284183e-01  5.6329511742315796e-01  5.6266401098321961e-01  5.6203163052728855e-01  5.6140033155226510e-01  5.6076914548760959e-01  5.6014299826977187e-01  5.5951572807554950e-01  5.5888633500239870e-01  5.5826137406316645e-01  5.5763551709167047e-01  5.5701061018689058e-01  5.5638537106040065e-01  5.5576577044498299e-01  5.5514492179585662e-01  5.5452891388751202e-01  5.5391204232130409e-01  5.5329585882654009e-01  5.5267953512012913e-01  5.5206540166991258e-01  5.5144723694974063e-01  5.5082581989738244e-01  5.5020903357191120e-01  5.4959156829537403e-01  5.4897796911119290e-01  5.4836487149638868e-01  5.4775335268402148e-01  5.4714362303931108e-01  5.4653822323976275e-01  5.4593210931557323e-01  5.4532568753848953e-01  5.4472326272603766e-01  5.4411940818006299e-01  5.4351624144862076e-01  5.4291423170307296e-01  5.4231720179724818e-01  5.4171977467006094e-01  5.4112136563310742e-01  5.4052710387354719e-01  5.3993238514218311e-01  5.3933747342044747e-01  5.3874722141731668e-01  5.3815683022537031e-01  5.3756574684758152e-01  5.3698031684526459e-01  5.3639486274973069e-01  5.3580956421619530e-01  5.3522481996966897e-01  5.3464424614140027e-01  5.3406290755051600e-01  5.3348206431713585e-01  5.3290494358104801e-01  5.3232546265781655e-01  5.3174792311237218e-01  5.3116991950730341e-01  5.3059300769798590e-01  5.3001766691264773e-01  5.2944738114304246e-01  5.2887653838471071e-01  5.2830410511809289e-01  5.2773636171675808e-01  5.2716846885117985e-01  5.2660207161617578e-01  5.2603591083299606e-01  5.2547493168486870e-01  5.2491290243527666e-01  5.2435517879937266e-01  5.2379659599704342e-01  5.2323862161558454e-01  5.2268052377635088e-01  5.2212446356605868e-01  5.2156480780936065e-01  5.2100228638136969e-01  5.2044413660784716e-01  5.1988555379731638e-01  5.1933061841933748e-01  5.1877628292832656e-01  5.1822336010334180e-01  5.1767267339874135e-01  5.1712698840811244e-01  5.1658102441268838e-01  5.1603891580618200e-01  5.1549631811905439e-01  5.1495537093922039e-01  5.1441597882926093e-01  5.1388174502616890e-01  5.1334779547740750e-01  5.1281333378233462e-01  5.1228299498773300e-01  5.1175263390397041e-01  5.1122233239627057e-01  5.1069619748304207e-01  5.1017039475635684e-01  5.0965107900034567e-01  5.0913282249644609e-01  5.0861967826801990e-01  5.0810820320557870e-01  5.0759714712621973e-01  5.0709145518594023e-01  5.0658748682795429e-01  5.0608882446436443e-01  5.0559025881159303e-01  5.0509726220760609e-01  5.0460533489000370e-01  5.0411842679636720e-01  5.0363503073782478e-01  5.0315586015257474e-01  5.0268125894527327e-01  5.0221468317407547e-01  5.0175158668737874e-01  5.0128941976688612e-01  5.0083503892698678e-01  5.0038461127015044e-01  4.9993914065183548e-01  4.9949838789686341e-01  4.9906642399668372e-01  4.9863932331672944e-01  4.9822080114250844e-01  4.9780787685706690e-01  4.9739898432261831e-01  4.9699968795911098e-01  4.9660595336418700e-01  4.9622125885164925e-01  4.9584508210382244e-01  4.9547337622186499e-01  4.9511316135027339e-01  4.9476093919642800e-01  4.9441595352501866e-01  4.9407985481151823e-01  4.9375663474057285e-01  4.9344351972715111e-01  4.9314335969811396e-01  4.9285432607152840e-01  4.9257254194896127e-01  4.9230482088704125e-01  4.9204850573941750e-01  4.9180653414224274e-01  4.9157942765115015e-01  4.9136088408359030e-01  4.9115982733021846e-01  4.9097435974641807e-01  4.9080510464285654e-01  4.9065258999340067e-01  4.9052087671837297e-01  4.9040876182814175e-01  4.9031450573458923e-01  4.9023881743658587e-01  4.9017575806606634e-01  4.9013412399737583e-01  4.9011221884599027e-01  4.9011083990509807e-01  4.9012998809717467e-01  4.9016704383974830e-01  4.9022250234272136e-01  4.9029715679514801e-01  4.9039171618799809e-01  4.9050756381366567e-01  4.9064517836064170e-01  4.9080214886604095e-01  4.9097992099475185e-01  4.9117383480116661e-01  4.9138543624945169e-01  4.9159625983470645e-01  4.9178384002760123e-01  4.9194990255017418e-01  4.9200414326433545e-01  4.8806514281843921e-01  4.8459005985327591e-01  4.8127595180534516e-01  4.7813231400738848e-01  4.7511732653036853e-01  4.7221642605355252e-01  4.6939753073572094e-01  4.6661968248998731e-01  4.6392474071230916e-01  4.6127684950293762e-01  4.5867148487437337e-01  4.5610925286906451e-01  4.5360891628805233e-01  4.5114081804464440e-01  4.4871998081118392e-01  4.4632630383888922e-01  4.4395446695543844e-01  4.4162996729969339e-01  4.3931980808206811e-01  4.3703839407195494e-01  4.3477541287588178e-01  4.3253473489239486e-01  4.3033367720198923e-01  4.2814448281769280e-01  4.2599747275826144e-01  4.2385957812449176e-01  4.2174684317544497e-01  4.1965254609215669e-01  4.1759888306054577e-01  4.1555074543388931e-01  4.1353890308021396e-01  4.1153042470284634e-01  4.0954564172612135e-01  4.0757740476856019e-01  4.0564805688907302e-01  4.0372565926404586e-01  4.0183512737367194e-01  3.9995536687396316e-01  3.9809450041113442e-01  3.9626431110694976e-01  3.9445160900318998e-01  3.9267611656009582e-01  3.9090759749407616e-01  3.8915774457788255e-01  3.8744552547835770e-01  3.8574597438913572e-01  3.8406982977036214e-01  3.8242728622599159e-01  3.8080345508220503e-01  3.7921496715912179e-01  3.7763503459509518e-01  3.7608550858892481e-01  3.7454933818487224e-01  3.7303335080062361e-01  3.7154144732513988e-01  3.7008449459791148e-01  3.6864111201803845e-01  3.6723247372720341e-01  3.6583590415817785e-01  3.6446949571982645e-01  3.6314019508311718e-01  3.6182219576287811e-01  3.6052789610704916e-01  3.5925399341920938e-01  3.5801517811965816e-01  3.5678987517767563e-01  3.5559149786769700e-01  3.5442624923896715e-01  3.5327639014853596e-01  3.5215284044567041e-01  3.5105756032876106e-01  3.4998165568910400e-01  3.4893942612748724e-01  3.4791153955593390e-01  3.4691568884257129e-01  3.4593375854739389e-01  3.4498207031118444e-01  3.4406365180909082e-01  3.4315892457386404e-01  3.4228112960964696e-01  3.4141959241636893e-01  3.4058931916796026e-01  3.3978905945049881e-01  3.3900214698336839e-01  3.3823658004461310e-01  3.3749524590238100e-01  3.3678343868060456e-01  3.3608897517882119e-01  3.3542398051253869e-01  3.3477576923366570e-01  3.3415715861874390e-01  3.3356830783170888e-01  3.3299569852152433e-01  3.3244576419991684e-01  3.3191529701507527e-01  3.3141072010963457e-01  3.3092115010386208e-01  3.3045573196084427e-01  3.3000454532952839e-01  3.2957566209157524e-01  3.2916845204180839e-01  3.2878719095158604e-01  3.2842293422908275e-01  3.2808254164560513e-01  3.2776523859247320e-01  3.2746470256184118e-01  3.2718499444185417e-01  3.2692403636067430e-01  3.2668343012985895e-01  3.2645733526620718e-01  3.2625380628705286e-01  3.2607059795277143e-01  3.2590851102149809e-01  3.2576389923932414e-01  3.2563961036021094e-01  3.2553338753022959e-01  3.2544564013978755e-01  3.2537583581455470e-01  3.2532185738071862e-01  3.2528236233592456e-01  3.2526637442776302e-01  3.2526748272220479e-01  3.2528534033831202e-01  3.2532590799340466e-01  3.2538114239340932e-01  3.2545157550754961e-01  3.2554552881058008e-01  3.2565282942378132e-01  3.2577517656071681e-01  3.2591758169459845e-01  3.2607445166612992e-01  3.2624871409466272e-01  3.2643813672494826e-01  3.2664354752355790e-01  3.2686582759642180e-01  3.2710087004780702e-01  3.2735310424759811e-01  3.2762116697323024e-01  3.2790491995289872e-01  3.2820868251438001e-01  3.2852200935435161e-01  3.2884985431222508e-01  3.2919951324727142e-01  3.2956057813958389e-01  3.2993922095260886e-01  3.3033387749318494e-01  3.3074421622770755e-01  3.3116555338046189e-01  3.3160467942352490e-01  3.3206508429738535e-01  3.3253719249854319e-01  3.3302700512506755e-01  3.3352916837241064e-01  3.3404973231314800e-01  3.3458002878808679e-01  3.3512914924459020e-01  3.3568989786607784e-01  3.3626940007632766e-01  3.3686922658828633e-01  3.3748084867074046e-01  3.3811216467554694e-01  3.3876383766920753e-01  3.3942923712003475e-01  3.4011629862591253e-01  3.4082231585135858e-01  3.4154194800213089e-01  3.4228502204356420e-01  3.4304743066618198e-01  3.4382821093067301e-01  3.4462237292791609e-01  3.4544206072475542e-01  3.4627727515105788e-01  3.4713977153401027e-01  3.4802390912876008e-01  3.4893281131887427e-01  3.4985902901962307e-01  3.5081579587200395e-01  3.5179469116813022e-01  3.5279447101854339e-01  3.5382803286511494e-01  3.5488564633758218e-01  3.5597895622465386e-01  3.5710595831982850e-01  3.5826234070875829e-01  3.5944904643623155e-01  3.6068211753248219e-01  3.6194515016673756e-01  3.6324577354764598e-01  3.6459936252462732e-01  3.6600180901937501e-01  3.6746371944707035e-01  3.6896894814857262e-01  3.7053211963081001e-01  3.7217330421226286e-01  3.7387771284660543e-01  3.7566162300072026e-01  3.7754906985209125e-01  3.7955114361842135e-01  3.8169736650505831e-01  3.8410369114455556e-01  3.8354218506850163e-01  3.8292446332476843e-01  3.8229981073828645e-01  3.8169008188241488e-01  3.8108906843760015e-01  3.8050370618013657e-01  3.7992897989914909e-01  3.7936421931597425e-01  3.7880925036097862e-01  3.7826595936446028e-01  3.7772947075652774e-01  3.7720438987836291e-01  3.7668574741974620e-01  3.7617378149365649e-01  3.7566704313428656e-01  3.7517150895959567e-01  3.7468218331116621e-01  3.7420012193635133e-01  3.7372382196223425e-01  3.7325595158580377e-01  3.7279165255607710e-01  3.7233455447592517e-01  3.7188054818073701e-01  3.7143060552437429e-01  3.7098460856436100e-01  3.7054535122949128e-01  3.7010879310982958e-01  3.6967276605620658e-01  3.6924090366818818e-01  3.6880981188909490e-01  3.6837893626250545e-01  3.6795136342025464e-01  3.6752399774679928e-01  3.6710241314183512e-01  3.6668234594074472e-01  3.6626474217453148e-01  3.6584813052521598e-01  3.6543654569821876e-01  3.6502629081673965e-01  3.6461805346369569e-01  3.6421420418849215e-01  3.6381048143487599e-01  3.6340948959902170e-01  3.6301066699617246e-01  3.6261673857028776e-01  3.6222382540151593e-01  3.6183255300597639e-01  3.6144196851483862e-01  3.6105530797350510e-01  3.6066883085452422e-01  3.6028437361478644e-01  3.5990026182965706e-01  3.5951684911181619e-01  3.5913427996755043e-01  3.5875493069438652e-01  3.5837548003495617e-01  3.5799523507890824e-01  3.5761712191230871e-01  3.5723812731051535e-01  3.5686122290112271e-01  3.5648319422884706e-01  3.5610448049907834e-01  3.5572532246620620e-01  3.5534863219186957e-01  3.5497090012545124e-01  3.5459267796128435e-01  3.5421704772266233e-01  3.5384078832139831e-01  3.5346579610712031e-01  3.5309085281856861e-01  3.5271910775405418e-01  3.5234690803028107e-01  3.5197554481606685e-01  3.5160392806413493e-01  3.5123232155369105e-01  3.5086325128871582e-01  3.5049328160054294e-01  3.5012387927629590e-01  3.4975468217749694e-01  3.4938886873092106e-01  3.4902307144218742e-01  3.4865672731670094e-01  3.4829254857808012e-01  3.4792804265444927e-01  3.4756644822819788e-01  3.4720421547281732e-01  3.4684305213230215e-01  3.4648160427855945e-01  3.4612239747815793e-01  3.4576235137443045e-01  3.4540182029151162e-01  3.4504291040393659e-01  3.4468228188754557e-01  3.4432075973272835e-01  3.4395822601214832e-01  3.4359760110379767e-01  3.4323582682461412e-01  3.4287397835620409e-01  3.4251458626188580e-01  3.4215392068549244e-01  3.4179324650016413e-01  3.4143289260720211e-01  3.4107592793430991e-01  3.4071841582380480e-01  3.4036380483084272e-01  3.4000886604287400e-01  3.3965326540350677e-01  3.3929722373308535e-01  3.3894247451540510e-01  3.3858606065384828e-01  3.3822844762844367e-01  3.3787003797511661e-01  3.3751375777561071e-01  3.3715605809768640e-01  3.3680069619340214e-01  3.3644461246973562e-01  3.3608885242545705e-01  3.3573356749372740e-01  3.3538039208154946e-01  3.3502637139422653e-01  3.3467194004050821e-01  3.3431947182904204e-01  3.3396578631898860e-01  3.3361215720339688e-01  3.3325881183147116e-01  3.3290808696231389e-01  3.3255681852011487e-01  3.3220484238161058e-01  3.3185516135174142e-01  3.3150506302498323e-01  3.3115476782281117e-01  3.3080715004004152e-01  3.3045939419564896e-01  3.3011105559332565e-01  3.2976589744738843e-01  3.2942059326414408e-01  3.2907519129873403e-01  3.2872980099364230e-01  3.2838641742784519e-01  3.2804211705930897e-01  3.2769766727167127e-01  3.2735477868739332e-01  3.2700982502874765e-01  3.2666527015292923e-01  3.2631952582111479e-01  3.2597370315749863e-01  3.2562783051370658e-01  3.2528403318199817e-01  3.2493888494512835e-01  3.2459219412960316e-01  3.2424748160177158e-01  3.2390180932336493e-01  3.2355627269245663e-01  3.2321021839546649e-01  3.2286703069722933e-01  3.2252354587108661e-01  3.2218200103859190e-01  3.2183989012358455e-01  3.2149772628667117e-01  3.2115517822202644e-01  3.2081443471894283e-01  3.2047204784225153e-01  3.2012791237138311e-01  3.1978610199796348e-01  3.1944320894290107e-01  3.1910274518000259e-01  3.1876177959835533e-01  3.1842129765489069e-01  3.1808132470935468e-01  3.1774346131799241e-01  3.1740487562606529e-01  3.1706593916104781e-01  3.1672894308691202e-01  3.1639084323155425e-01  3.1605285228488300e-01  3.1571514761520275e-01  3.1538000347867146e-01  3.1504439307519694e-01  3.1470814930730834e-01  3.1437418289029201e-01  3.1403990142277677e-01  3.1370548650355851e-01  3.1337370905117362e-01  3.1304187842767073e-01  3.1270955800255912e-01  3.1238029354968277e-01  3.1205090473010327e-01  3.1172145054799627e-01  3.1139207720460443e-01  3.1106470599040648e-01  3.1073653253819095e-01  3.1040878210779727e-01  3.1008012768761672e-01  3.0975101549026079e-01  3.0942321417818786e-01  3.0909371437469763e-01  3.0876386788669552e-01  3.0843351395343560e-01  3.0810509854065954e-01  3.0777484340379024e-01  3.0744633152378043e-01  3.0711628883798187e-01  3.0678578093182984e-01  3.0645512909077671e-01  3.0612751506339969e-01  3.0579932423420420e-01  3.0547391816598107e-01  3.0514833399291591e-01  3.0482230115480757e-01  3.0449605581057121e-01  3.0417122388509416e-01  3.0384509788034986e-01  3.0351807118759844e-01  3.0319051727679402e-01  3.0286515884247162e-01  3.0253875411120884e-01  3.0221472509789660e-01  3.0189028230226522e-01  3.0156631405845258e-01  3.0124294487075642e-01  3.0092164659463200e-01  3.0059973126617767e-01  3.0027751836497862e-01  2.9995720621918476e-01  2.9963590462184436e-01  2.9931474421426479e-01  2.9899392227062899e-01  2.9867553846362