<?xml version="1.0"?>
<VTKFile type="UnstructuredGrid"  version="0.1"  >
<UnstructuredGrid>
<Piece  NumberOfPoints="5020" NumberOfCells="7838">
<Points>
<DataArray  type="Float64"  NumberOfComponents="3"  format="ascii">0 0.01 0  0 0 0  0.01 0 0  0.02 0 0  0.03 0 0  0.04 0 0  0.05 0 0  0.06 0 0  0.07000000000000001 0 0  0.08 0 0  0.09 0 0  0.1 0 0  0.11 0 0  0.12 0 0  0.13 0 0  0.14 0 0  0.15 0 0  0.16 0 0  0.17 0 0  0.18 0 0  0.19 0 0  0.2 0 0  0.21 0 0  0.22 0 0  0.23 0 0  0.24 0 0  0.25 0 0  0.26 0 0  0.27 0 0  0.28 0 0  0.29 0 0  0.3 0 0  0.31 0 0  0.32 0 0  0.33 0 0  0.34 0 0  0.35 0 0  0.36 0 0  0.37 0 0  0.38 0 0  0.39 0 0  0.4 0 0  0.41 0 0  0.42 0 0  0.43 0 0  0.44 0 0  0.45 0 0  0.46 0 0  0.47 0 0  0.48 0 0  0.49 0 0  0.5 0 0  0.51 0 0  0.52 0 0  0.53 0 0  0.54 0 0  0.55 0 0  0.5600000000000001 0 0  0.57 0 0  0.58 0 0  0.59 0 0  0.6 0 0  0.61 0 0  0.62 0 0  0.63 0 0  0.64 0 0  0.65 0 0  0.66 0 0  0.67 0 0  0.68 0 0  0.6899999999999999 0 0  0.7 0 0  0.71 0 0  0.72 0 0  0.73 0 0  0.74 0 0  0.75 0 0  0.76 0 0  0.77 0 0  0.78 0 0  0.79 0 0  0.8 0 0  0.8100000000000001 0 0  0.82 0 0  0.83 0 0  0.84 0 0  0.85 0 0  0.86 0 0  0.87 0 0  0.88 0 0  0.89 0 0  0.9 0 0  0.91 0 0  0.92 0 0  0.93 0 0  0.9399999999999999 0 0  0.95 0 0  0.96 0 0  0.97 0 0  0.98 0 0  0.99 0 0  1 0 0  1.01 0 0  1.02 0 0  1.03 0 0  1.04 0 0  1.05 0 0  1.06 0 0  1.07 0 0  1.08 0 0  1.09 0 0  1.1 0 0  1.11 0 0  1.12 0 0  1.13 0 0  1.14 0 0  1.15 0 0  1.16 0 0  1.17 0 0  1.18 0 0  1.19 0 0  1.2 0 0  1.21 0 0  1.22 0 0  1.23 0 0  1.24 0 0  1.25 0 0  1.26 0 0  1.27 0 0  1.28 0 0  1.29 0 0  1.3 0 0  1.31 0 0  1.32 0 0  1.33 0 0  1.34 0 0  1.35 0 0  1.36 0 0  1.37 0 0  1.38 0 0  1.39 0 0  1.4 0 0  1.41 0 0  1.42 0 0  1.43 0 0  1.44 0 0  1.45 0 0  1.46 0 0  1.47 0 0  1.48 0 0  1.49 0 0  1.5 0 0  1.51 0 0  1.52 0 0  1.53 0 0  1.54 0 0  1.55 0 0  1.56 0 0  1.57 0 0  1.58 0 0  1.59 0 0  1.6 0 0  1.61 0 0  1.62 0 0  1.63 0 0  1.64 0 0  1.65 0 0  1.66 0 0  1.67 0 0  1.68 0 0  1.69 0 0  1.7 0 0  1.71 0 0  1.72 0 0  1.73 0 0  1.74 0 0  1.75 0 0  1.76 0 0  1.77 0 0  1.78 0 0  1.79 0 0  1.8 0 0  1.81 0 0  1.82 0 0  1.83 0 0  1.84 0 0  1.85 0 0  1.86 0 0  1.87 0 0  1.88 0 0  1.89 0 0  1.9 0 0  1.91 0 0  1.92 0 0  1.93 0 0  1.94 0 0  1.95 0 0  1.96 0 0  1.97 0 0  1.98 0 0  1.99 0 0  2 0 0  2.01 0 0  2.02 0 0  2.03 0 0  2.04 0 0  2.05 0 0  2.06 0 0  2.07 0 0  2.08 0 0  2.09 0 0  2.1 0 0  2.11 0 0  2.12 0 0  2.13 0 0  2.14 0 0  2.15 0 0  2.16 0 0  2.17 0 0  2.18 0 0  2.19 0 0  2.2 0 0  2.21 0 0  2.22 0 0  2.23 0 0  2.24 0 0  2.25 0 0  2.26 0 0  2.27 0 0  2.28 0 0  2.29 0 0  2.3 0 0  2.31 0 0  2.32 0 0  2.33 0 0  2.34 0 0  2.35 0 0  2.36 0 0  2.37 0 0  2.38 0 0  2.39 0 0  2.4 0 0  2.41 0 0  2.42 0 0  2.43 0 0  2.44 0 0  2.45 0 0  2.46 0 0  2.47 0 0  2.48 0 0  2.49 0 0  2.5 0 0  2.51 0 0  2.52 0 0  2.53 0 0  2.54 0 0  2.55 0 0  2.56 0 0  2.57 0 0  2.58 0 0  2.59 0 0  2.6 0 0  2.61 0 0  2.62 0 0  2.63 0 0  2.64 0 0  2.65 0 0  2.66 0 0  2.67 0 0  2.68 0 0  2.69 0 0  2.7 0 0  2.71 0 0  2.72 0 0  2.73 0 0  2.74 0 0  2.75 0 0  2.76 0 0  2.77 0 0  2.78 0 0  2.79 0 0  2.8 0 0  2.81 0 0  2.82 0 0  2.83 0 0  2.84 0 0  2.85 0 0  2.86 0 0  2.87 0 0  2.88 0 0  2.89 0 0  2.9 0 0  2.91 0 0  2.92 0 0  2.93 0 0  2.94 0 0  2.95 0 0  2.96 0 0  2.97 0 0  2.98 0 0  2.99 0 0  3 0 0  3.01 0 0  3.02 0 0  3.03 0 0  3.04 0 0  3.05 0 0  3.06 0 0  3.07 0 0  3.08 0 0  3.09 0 0  3.1 0 0  3.11 0 0  3.12 0 0  3.13 0 0  3.14 0 0  3.15 0 0  3.16 0 0  3.17 0 0  3.18 0 0  3.19 0 0  3.2 0 0  3.21 0 0  3.22 0 0  3.23 0 0  3.24 0 0  3.25 0 0  3.26 0 0  3.27 0 0  3.28 0 0  3.29 0 0  3.3 0 0  3.31 0 0  3.32 0 0  3.33 0 0  3.34 0 0  3.35 0 0  3.36 0 0  3.37 0 0  3.38 0 0  3.39 0 0  3.4 0 0  3.41 0 0  3.42 0 0  3.43 0 0  3.44 0 0  3.45 0 0  3.46 0 0  3.47 0 0  3.48 0 0  3.49 0 0  3.5 0 0  3.51 0 0  3.52 0 0  3.53 0 0  3.54 0 0  3.55 0 0  3.56 0 0  3.57 0 0  3.58 0 0  3.59 0 0  3.6 0 0  3.61 0 0  3.62 0 0  3.63 0 0  3.64 0 0  3.65 0 0  3.66 0 0  3.67 0 0  3.68 0 0  3.69 0 0  3.7 0 0  3.71 0 0  3.72 0 0  3.73 0 0  3.74 0 0  3.75 0 0  3.76 0 0  3.77 0 0  3.78 0 0  3.79 0 0  3.8 0 0  3.81 0 0  3.82 0 0  3.83 0 0  3.84 0 0  3.85 0 0  3.86 0 0  3.87 0 0  3.88 0 0  3.89 0 0  3.9 0 0  3.91 0 0  3.92 0 0  3.93 0 0  3.94 0 0  3.95 0 0  3.96 0 0  3.97 0 0  3.98 0 0  3.99 0 0  4 0 0  4.01 -0.007853658655910169 0  4.02 -0.01570537953906381 0  4.03 -0.02355322535482153 0  4.04 -0.03139525976465671 0  4.05 -0.03922954786392233 0  4.06 -0.04705415665925685 0  4.07 -0.05486715554552286 0  4.08 -0.06266661678215218 0  4.09 -0.07045061596879122 0  4.1 -0.07821723252011516 0  4.11 -0.08596455013970501 0  4.12 -0.09369065729286238 0  4.13 -0.1013936476782562 0  4.14 -0.109071620698271 0  4.15 -0.116722681927953 0  4.16 -0.1243449435824275 0  4.17 -0.1319365249826864 0  4.18 -0.1394955530196144 0  4.19 -0.1470201626161523 0  4.2 -0.1545084971874738 0  4.21 -0.1619587090990747 0  4.22 -0.1693689601226455 0  4.23 -0.1767374218896289 0  4.24 -0.1840622763423391 0  4.25 -0.1913417161825449 0  4.26 -0.1985739453173901 0  4.27 -0.2057571793025541 0  4.28 -0.2128896457825365 0  4.29 -0.2199695849279576 0  4.3 -0.2269952498697733 0  4.31 -0.2339649071302864 0  4.32 -0.2408768370508579 0  4.33 -0.2477293342162038 0  4.34 -0.2545207078751855 0  4.35 -0.2612492823579742 0  4.36 -0.2679133974894985 0  4.37 -0.274511408999066 0  4.38 -0.2810416889260652 0  4.39 -0.2875026260216391 0  4.4 -0.2938926261462368 0  4.41 -0.3002101126629421 0  4.42 -0.3064535268264882 0  4.43 -0.3126213281678524 0  4.44 -0.3187119948743451 0  4.45 -0.3247240241650919 0  4.46 -0.3306559326618259 0  4.47 -0.3365062567548865 0  4.48 -0.3422735529643445 0  4.49 -0.3479563982961573 0  4.5 -0.3535533905932737 0  4.51 -0.3590631488815943 0  4.52 -0.3644843137107056 0  4.53 -0.369815547489305 0  4.54 -0.3750555348152298 0  4.55 -0.3802029828000154 0  4.56 -0.3852566213878944 0  4.57 -0.390215203669165 0  4.58 -0.3950775061878452 0  4.59 -0.3998423292435452 0  4.6 -0.4045084971874736 0  4.61 -0.4090748587125118 0  4.62 -0.413540287137281 0  4.63 -0.4179036806841351 0  4.64 -0.4221639627510074 0  4.65 -0.4263200821770463 0  4.66 -0.4303710135019718 0  4.67 -0.4343157572190955 0  4.68 -0.4381533400219317 0  4.69 -0.4418828150443468 0  4.7 -0.4455032620941839 0  4.71 -0.4490137878803078 0  4.72 -0.4524135262330097 0  4.73 -0.4557016383177228 0  4.74 -0.4588773128419906 0  4.75 -0.4619397662556434 0  4.76 -0.4648882429441256 0  4.77 -0.4677220154149335 0  4.78 -0.4704403844771128 0  4.79 -0.4730426794137726 0  4.8 -0.4755282581475768 0  4.81 -0.477896507399165 0  4.82 -0.4801468428384716 0  4.83 -0.482278709228899 0  4.84 -0.4842915805643155 0  4.85 -0.4861849601988382 0  4.86 -0.4879583809693738 0  4.87 -0.4896114053108829 0  4.88 -0.4911436253643443 0  4.89 -0.4925546630773869 0  4.9 -0.4938441702975689 0  4.91 -0.4950118288582788 0  4.92 -0.4960573506572389 0  4.93 -0.4969804777275898 0  4.94 -0.4977809823015401 0  4.95 -0.498458666866564 0  4.96 -0.4990133642141358 0  4.97 -0.499444937480985 0  4.98 -0.4997532801828658 0  4.99 -0.4999383162408303 0  5 -0.5 0  5.01 -0.4999383162408303 0  5.02 -0.4997532801828658 0  5.03 -0.499444937480985 0  5.04 -0.4990133642141358 0  5.05 -0.498458666866564 0  5.06 -0.4977809823015401 0  5.07 -0.4969804777275898 0  5.08 -0.4960573506572389 0  5.09 -0.4950118288582788 0  5.1 -0.4938441702975689 0  5.11 -0.4925546630773869 0  5.12 -0.4911436253643443 0  5.13 -0.4896114053108829 0  5.14 -0.4879583809693738 0  5.15 -0.4861849601988382 0  5.16 -0.4842915805643155 0  5.17 -0.4822787092288991 0  5.18 -0.4801468428384716 0  5.19 -0.477896507399165 0  5.2 -0.4755282581475768 0  5.21 -0.4730426794137727 0  5.22 -0.4704403844771128 0  5.23 -0.4677220154149336 0  5.24 -0.4648882429441257 0  5.25 -0.4619397662556434 0  5.26 -0.4588773128419906 0  5.27 -0.4557016383177228 0  5.28 -0.4524135262330097 0  5.29 -0.4490137878803078 0  5.3 -0.4455032620941841 0  5.31 -0.4418828150443468 0  5.32 -0.4381533400219317 0  5.33 -0.4343157572190956 0  5.34 -0.4303710135019719 0  5.35 -0.4263200821770463 0  5.36 -0.4221639627510075 0  5.37 -0.4179036806841351 0  5.38 -0.413540287137281 0  5.39 -0.4090748587125119 0  5.4 -0.4045084971874736 0  5.41 -0.3998423292435452 0  5.42 -0.3950775061878453 0  5.43 -0.390215203669165 0  5.44 -0.3852566213878945 0  5.45 -0.3802029828000154 0  5.46 -0.3750555348152299 0  5.47 -0.369815547489305 0  5.48 -0.3644843137107056 0  5.49 -0.3590631488815942 0  5.5 -0.3535533905932738 0  5.51 -0.3479563982961574 0  5.52 -0.3422735529643446 0  5.53 -0.3365062567548867 0  5.54 -0.3306559326618259 0  5.55 -0.3247240241650921 0  5.56 -0.3187119948743451 0  5.57 -0.3126213281678525 0  5.58 -0.3064535268264882 0  5.59 -0.3002101126629422 0  5.6 -0.2938926261462368 0  5.61 -0.2875026260216392 0  5.62 -0.2810416889260652 0  5.63 -0.274511408999066 0  5.64 -0.2679133974894985 0  5.65 -0.2612492823579743 0  5.66 -0.2545207078751855 0  5.67 -0.2477293342162039 0  5.68 -0.2408768370508578 0  5.69 -0.2339649071302865 0  5.7 -0.2269952498697732 0  5.71 -0.2199695849279577 0  5.72 -0.2128896457825364 0  5.73 -0.2057571793025542 0  5.74 -0.1985739453173901 0  5.75 -0.1913417161825449 0  5.76 -0.1840622763423393 0  5.77 -0.1767374218896289 0  5.78 -0.1693689601226457 0  5.79 -0.1619587090990747 0  5.8 -0.154508497187474 0  5.81 -0.1470201626161523 0  5.82 -0.1394955530196146 0  5.83 -0.1319365249826864 0  5.84 -0.1243449435824276 0  5.85 -0.116722681927953 0  5.86 -0.1090716206982712 0  5.87 -0.1013936476782562 0  5.88 -0.09369065729286251 0  5.89 -0.08596455013970501 0  5.9 -0.07821723252011527 0  5.91 -0.07045061596879121 0  5.92 -0.06266661678215227 0  5.93 -0.05486715554552282 0  5.94 -0.04705415665925695 0  5.95 -0.03922954786392231 0  5.96 -0.03139525976465679 0  5.97 -0.02355322535482148 0  5.98 -0.0157053795390639 0  5.99 -0.007853658655910133 0  6 -6.123233995736766e-17 0  6.01 0 0  6.02 0 0  6.03 0 0  6.04 0 0  6.05 0 0  6.06 0 0  6.07 0 0  6.08 0 0  6.09 0 0  6.1 0 0  6.11 0 0  6.12 0 0  6.13 0 0  6.14 0 0  6.15 0 0  6.16 0 0  6.17 0 0  6
[...]
<PointData  Scalars="f_2038-1"> 
<DataArray  type="Float64"  Name="f_2038-1"  format="ascii">-7.3192635915312081e+01  -7.3308835473963512e+01  -7.3112296835818043e+01  -7.3041271546136059e+01  -7.2996919026988976e+01  -7.2850546167784259e+01  -7.2809396241775417e+01  -7.2723362660036230e+01  -7.2647209347876540e+01  -7.2558074268372039e+01  -7.2483923157548190e+01  -7.2399987348226873e+01  -7.2323749390043773e+01  -7.2243817443770908e+01  -7.2163708905758014e+01  -7.2083850812826626e+01  -7.2003968251256254e+01  -7.1924060768680519e+01  -7.1844070967172385e+01  -7.1764291364897446e+01  -7.1684300477459118e+01  -7.1604259529024262e+01  -7.1525346947831167e+01  -7.1443502212078684e+01  -7.1364081194292581e+01  -7.1285760812036912e+01  -7.1203148270731134e+01  -7.1124541014607146e+01  -7.1044355415615541e+01  -7.0964596120035694e+01  -7.0884048889413705e+01  -7.0804279079108781e+01  -7.0723972340073956e+01  -7.0645772676979163e+01  -7.0562876683883545e+01  -7.0484848202967385e+01  -7.0404163108324198e+01  -7.0324263915976587e+01  -7.0244494576592288e+01  -7.0164198124185205e+01  -7.0084956302770806e+01  -7.0003992544156702e+01  -6.9924708028840072e+01  -6.9844565703645173e+01  -6.9764567924030189e+01  -6.9684463736481320e+01  -6.9604043099025276e+01  -6.9524490644849109e+01  -6.9444402895122778e+01  -6.9363969134457790e+01  -6.9283258631815102e+01  -6.9204452726682192e+01  -6.9124069503458074e+01  -6.9044311731777242e+01  -6.8964103332390380e+01  -6.8885008182832337e+01  -6.8803392582005046e+01  -6.8724218682160298e+01  -6.8644214332135860e+01  -6.8563899637154250e+01  -6.8484664250073848e+01  -6.8404156628097837e+01  -6.8324193633393222e+01  -6.8244390388577031e+01  -6.8164259138278226e+01  -6.8084342596182168e+01  -6.8003741705584517e+01  -6.7925274906908896e+01  -6.7844129323239471e+01  -6.7764584533684967e+01  -6.7684495982954914e+01  -6.7604776699273799e+01  -6.7524591250185068e+01  -6.7444708848007551e+01  -6.7364719747788683e+01  -6.7284883334056474e+01  -6.7204637453756305e+01  -6.7124393779200048e+01  -6.7045147711745955e+01  -6.6963861667218751e+01  -6.6884814088094018e+01  -6.6804583372585384e+01  -6.6724792151138445e+01  -6.6644700476996618e+01  -6.6565063006764376e+01  -6.6484727034782608e+01  -6.6404773319168186e+01  -6.6324631944180410e+01  -6.6244613007247878e+01  -6.6165438558050596e+01  -6.6084049138630817e+01  -6.6004779933230211e+01  -6.5924506942864241e+01  -6.5844654264559296e+01  -6.5764906280737989e+01  -6.5684407057317458e+01  -6.5604671766911665e+01  -6.5524509672390508e+01  -6.5445763273097285e+01  -6.5363681526460198e+01  -6.5284858847964244e+01  -6.5204445205517160e+01  -6.5125006429101688e+01  -6.5044065660401543e+01  -6.4965229536608561e+01  -6.4884496282484847e+01  -6.4804519600583049e+01  -6.4725991206367382e+01  -6.4643260982148334e+01  -6.4564967094619703e+01  -6.4484154458850398e+01  -6.4405005577177747e+01  -6.4324100058731972e+01  -6.4244972697891541e+01  -6.4164703105968115e+01  -6.4084575613819410e+01  -6.4004302775309938e+01  -6.3924663648991562e+01  -6.3844584283957218e+01  -6.3764476152030234e+01  -6.3684675233311111e+01  -6.3604630109062484e+01  -6.3524500436871904e+01  -6.3444370377122944e+01  -6.3364513764589077e+01  -6.3284366417245742e+01  -6.3204661569354549e+01  -6.3124485990028980e+01  -6.3044026717777221e+01  -6.2964577658506300e+01  -6.2884839499025475e+01  -6.2804016538749437e+01  -6.2724734140470559e+01  -6.2643855189592095e+01  -6.2564299452600537e+01  -6.2485036742024512e+01  -6.2404151777452142e+01  -6.2325056714336952e+01  -6.2243730802751976e+01  -6.2164989532129688e+01  -6.2083471802366859e+01  -6.2004745103435631e+01  -6.1924304115624885e+01  -6.1845797654884691e+01  -6.1762789172471571e+01  -6.1684834680337467e+01  -6.1604257295704159e+01  -6.1524628387032259e+01  -6.1444458221510708e+01  -6.1364257318992749e+01  -6.1284578905479400e+01  -6.1204399080571676e+01  -6.1124910108074360e+01  -6.1043839374731689e+01  -6.0964663276398653e+01  -6.0884192043196968e+01  -6.0804746399732856e+01  -6.0723375087524815e+01  -6.0645365997300409e+01  -6.0564454031868912e+01  -6.0484598410511431e+01  -6.0404060468964481e+01  -6.0324923697154432e+01  -6.0244585649667293e+01  -6.0164209956562061e+01  -6.0084673947460956e+01  -6.0004580135317127e+01  -5.9924356172710517e+01  -5.9844615782936394e+01  -5.9764626316285558e+01  -5.9684475183496936e+01  -5.9604513278912165e+01  -5.9524454196006445e+01  -5.9446083202203148e+01  -5.9363161799957759e+01  -5.9284937277022550e+01  -5.9204110327707951e+01  -5.9127510270001288e+01  -5.9041576539464053e+01  -5.8965368417418688e+01  -5.8884005109072149e+01  -5.8804750487114340e+01  -5.8724862724901740e+01  -5.8644241223854785e+01  -5.8564412008818799e+01  -5.8486780783078238e+01  -5.8402300839853147e+01  -5.8325349517438120e+01  -5.8244053187156865e+01  -5.8164871366129098e+01  -5.8084549498360730e+01  -5.8004592048738878e+01  -5.7924508394931784e+01  -5.7844510728562980e+01  -5.7765491570071468e+01  -5.7683748564973747e+01  -5.7604587339506402e+01  -5.7524917977050308e+01  -5.7444659663253702e+01  -5.7363112536385572e+01  -5.7286190480056440e+01  -5.7204193473497803e+01  -5.7124518745672589e+01  -5.7044563790840165e+01  -5.6964452856531985e+01  -5.6884517121839274e+01  -5.6803909192268172e+01  -5.6725173847785470e+01  -5.6644211537219242e+01  -5.6564526333114166e+01  -5.6484367415385627e+01  -5.6404259727420339e+01  -5.6324969411667766e+01  -5.6243884815248911e+01  -5.6165370079032527e+01  -5.6083363422120982e+01  -5.6004164130172583e+01  -5.5924711844332521e+01  -5.5844189292401403e+01  -5.5764139162919548e+01  -5.5684386416416125e+01  -5.5604105989056052e+01  -5.5523920777546174e+01  -5.5444439031642645e+01  -5.5364078901436294e+01  -5.5283756359843480e+01  -5.5204410232335505e+01  -5.5123849276591471e+01  -5.5044165056835915e+01  -5.4963638235119333e+01  -5.4884249063759171e+01  -5.4803822019209910e+01  -5.4724408093200992e+01  -5.4643489694721211e+01  -5.4563667375225968e+01  -5.4484408576376531e+01  -5.4403248609815954e+01  -5.4325105462219199e+01  -5.4242549431756515e+01  -5.4163649247139766e+01  -5.4083686582373836e+01  -5.4004449933805823e+01  -5.3922849736677435e+01  -5.3843564663779283e+01  -5.3764313513562072e+01  -5.3682881437323296e+01  -5.3603560398043271e+01  -5.3523470121251094e+01  -5.3443635520433858e+01  -5.3363487004851422e+01  -5.3282815015300088e+01  -5.3204052841784296e+01  -5.3123309605178370e+01  -5.3043378800004639e+01  -5.2963050885372688e+01  -5.2883725578160131e+01  -5.2803300564119553e+01  -5.2723363107762609e+01  -5.2643278777951025e+01  -5.2563223733059672e+01  -5.2483457255802122e+01  -5.2403239655921929e+01  -5.2323485540416598e+01  -5.2242373313836040e+01  -5.2164100182589848e+01  -5.2083195766770928e+01  -5.2003289826015028e+01  -5.1923150981324788e+01  -5.1843375654879786e+01  -5.1763481786680110e+01  -5.1682725737039362e+01  -5.1604143325313366e+01  -5.1523376658023395e+01  -5.1443559589796621e+01  -5.1363418746227779e+01  -5.1283462898487585e+01  -5.1205197697235050e+01  -5.1122199839144251e+01  -5.1044029217346910e+01  -5.0963787280021620e+01  -5.0884122479463329e+01  -5.0804101059494762e+01  -5.0724187314917856e+01  -5.0644661984149224e+01  -5.0564022871700921e+01  -5.0484660590926637e+01  -5.0405078357894141e+01  -5.0324562723663369e+01  -5.0245022729943024e+01  -5.0165646427874535e+01  -5.0085506859731879e+01  -5.0005529176413376e+01  -4.9926215735893201e+01  -4.9846021008334105e+01  -4.9766752289625984e+01  -4.9684227678239672e+01  -4.9609517760785202e+01  -4.9526976713920654e+01  -4.9447606877978131e+01  -4.9368339227103021e+01  -4.9288326643576362e+01  -4.9209001727272977e+01  -4.9129142202174357e+01  -4.9049706919704313e+01  -4.8970409653279681e+01  -4.8890654282460780e+01  -4.8811280716260882e+01  -4.8731934321710490e+01  -4.8652768884407614e+01  -4.8572857871514209e+01  -4.8493974738396872e+01  -4.8414605036044023e+01  -4.8335462695921628e+01  -4.8256269309030628e+01  -4.8175499016151207e+01  -4.8099520421629329e+01  -4.8018369064511084e+01  -4.7940309743701654e+01  -4.7860879002254194e+01  -4.7782456571917727e+01  -4.7700341702074766e+01  -4.7627383348243107e+01  -4.7545385321054574e+01  -4.7466836837310957e+01  -4.7388960764489013e+01  -4.7310029274578852e+01  -4.7231448212425192e+01  -4.7153399196482511e+01  -4.7074558276479948e+01  -4.6997069951563695e+01  -4.6918556270237850e+01  -4.6840870782353086e+01  -4.6762595261798268e+01  -4.6685218970267876e+01  -4.6607067677629530e+01  -4.6530556043011202e+01  -4.6450988027473137e+01  -4.6374953956214291e+01  -4.6297379109833159e+01  -4.6220572688969177e+01  -4.6142875078870709e+01  -4.6066708639061481e+01  -4.5990014872540243e+01  -4.5912308748223090e+01  -4.5837567684852282e+01  -4.5760895014890259e+01  -4.5682171522116342e+01  -4.5611038758513544e+01  -4.5532585239090302e+01  -4.5457677417512350e+01  -4.5382432818318392e+01  -4.5306905566862000e+01  -4.5232259786948376e+01  -4.5157324583228203e+01  -4.5083345330021857e+01  -4.5007813148458119e+01  -4.4935990219905058e+01  -4.4860991512019147e+01  -4.4787952180218312e+01  -4.4715333163716551e+01  -4.4642127602125690e+01  -4.4569843035843640e+01  -4.4497597201143215e+01  -4.4427253211240355e+01  -4.4351749777874602e+01  -4.4287432101953733e+01  -4.4212924212545730e+01  -4.4143693073540220e+01  -4.4075063876500394e+01  -4.4004352547672831e+01  -4.3938358898824994e+01  -4.3869181938814215e+01  -4.3803315163355542e+01  -4.3736191520912008e+01  -4.3671827575238552e+01  -4.3604938342816666e+01  -4.3541870044469562e+01  -4.3481003659076457e+01  -4.3415746294073884e+01  -4.3359548046383814e+01  -4.3297380739423524e+01  -4.3240171888509252e+01  -4.3184680804563015e+01  -4.3124400606355522e+01  -4.3073921833097970e+01  -4.3016975982928194e+01  -4.2969675424648628e+01  -4.2920250066035933e+01  -4.2886517868579290e+01  -4.2835422764911918e+01  -4.2821227250644455e+01  -4.2776119292223093e+01  -4.2784657249887182e+01  -4.2739767926731972e+01  -4.2817602289314088e+01  -4.2768502652304925e+01  -4.2812719762609454e+01  -4.3004940454299913e+01  -4.3210231082164945e+01  -4.3323402030157098e+01  -4.4855412426969764e+01  -3.9365194789872412e+01  -3.1249360792992135e+01  -3.6314000785452549e+01  -3.5669442266314647e+01  -3.6450328787138865e+01  -3.6240000518147134e+01  -3.6535278887015558e+01  -3.6543843003591235e+01  -3.6598972049432305e+01  -3.6646395553360925e+01  -3.6649508094084858e+01  -3.6697780748819149e+01  -3.6696209751229866e+01  -3.6713568899334540e+01  -3.6702240767819575e+01  -3.6710399844942657e+01  -3.6704552524091952e+01  -3.6698024294472781e+01  -3.6692196355942421e+01  -3.6678379137177338e+01  -3.6674100397531049e+01  -3.6659422547305475e+01  -3.6648254100985433e+01  -3.6637700792966534e+01  -3.6622988240377133e+01  -3.6613987119770663e+01  -3.6598985275881503e+01  -3.6587161921444306e+01  -3.6572521935265449e+01  -3.6560804688893320e+01  -3.6544761310015666e+01  -3.6535021179600598e+01  -3.6520116332922967e+01  -3.6508082796740368e+01  -3.6493718594283237e+01  -3.6483997741471796e+01  -3.6469817115532635e+01  -3.6459388064061216e+01  -3.6447781499658447e+01  -3.6436609866778262e+01  -3.6427245396019138e+01  -3.6415593555862671e+01  -3.6409267815506766e+01  -3.6398844950231975e+01  -3.6390695776071503e+01  -3.6381506791579142e+01  -3.6373934102888732e+01  -3.6366084350508508e+01  -3.6358858798908599e+01  -3.6350626994628094e+01  -3.6346705779943740e+01  -3.6338611629514475e+01  -3.6334183503594147e+01  -3.6328247910041959e+01  -3.6323184948724872e+01  -3.6318109694255412e+01  -3.6314947695337956e+01  -3.6308991193402633e+01  -3.6308932874610356e+01  -3.6303832540784377e+01  -3.6300572353039449e+01  -3.6300019832121734e+01  -3.6297591581050590e+01  -3.6295207798309811e+01  -3.6293695941614182e+01  -3.6293651619595707e+01  -3.6292560297830192e+01  -3.6292859713713035e+01  -3.6291760202713270e+01  -3.6292755848172362e+01  -3.6292609946319260e+01  -3.6293634979076224e+01  -3.6293760011185135e+01  -3.6296150183918975e+01  -3.6296084917475618e+01  -3.6299785670620622e+01  -3.6300749330664686e+01  -3.6301557005716447e+01  -3.6306644527232152e+01  -3.6307900038119669e+01  -3.6310803207713100e+01  -3.6313776988341161e+01  -3.6315870191076350e+01  -3.6320674982052161e+01  -3.6324272092040893e+01  -3.6326904475125829e+01  -3.6330495257573489e+01  -3.6335508543206494e+01  -3.6336619639133517e+01  -3.6345014299440741e+01  -3.6346506303051434e+01  -3.6349788119841620e+01  -3.6356292179935693e+01  -3.6359956135548181e+01  -3.6363655837717516e+01  -3.6368111606725819e+01  -3.6373668312640476e+01  -3.6376490836322240e+01  -3.6383314834561084e+01  -3.6387255896355647e+01  -3.6391287027103530e+01  -3.6395056858222190e+01  -3.6402198480407925e+01  -3.6405561049903476e+01  -3.6408296750036129e+01  -3.6416107138335242e+01  -3.6418644153563250e+01  -3.6423370963545210e+01  -3.6426600580714492e+01  -3.6433437511971547e+01  -3.6436801499253612e+01  -3.6440701655428583e+01  -3.6443143863539120e+01  -3.6450137816484748e+01  -3.6452093686132699e+01  -3.6456619029629643e+01  -3.6459832611018072e+01  -3.6462786271644816e+01  -3.6466328693439266e+01  -3.6469764487410622e+01  -3.6472972302140818e+01  -3.6474741987709855e+01  -3.6478078215689294e+01  -3.6480556911256706e+01  -3.6480317613408239e+01  -3.6486258680966124e+01  -3.6485684861699148e+01  -3.6485982101315656e+01  -3.6490091014388838e+01  -3.6489599402326881e+01  -3.6488873466063673e+01  -3.6492165267638754e+01  -3.6490811559918797e+01  -3.6491518976357938e+01  -3.6490287689381866e+01  -3.6488477339444451e+01  -3.6489986746163062e+01  -3.6487596817407436e+01  -3.6485601702373827e+01  -3.6483692710547686e+01  -3.6479983950046822e+01  -3.6479935164630774e+01  -3.6475735986404999e+01  -3.6471798408653534e+01  -3.6469192999661672e+01  -3.6464699879065449e+01  -3.6459575693052905e+01  -3.6454545052707019e+01  -3.6449980045879656e+01  -3.6444421427861869e+01  -3.6436950286951351e+01  -3.6432212796677319e+01  -3.6424323580389604e+01  -3.6417926356566930e+01  -3.6408304528716656e+01  -3.6403935933974225e+01  -3.6393440408378616e+01  -3.6385863581007669e+01  -3.6376481147373724e+01  -3.6365942630077534e+01  -3.6355538127060434e+01  -3.6345412640252292e+01  -3.6333632893396853e+01  -3.6323208239781771e+01  -3.6311611232243003e+01  -3.6297965361345234e+01  -3.6288978253257262e+01  -3.6274660887239570e+01  -3.6263378102212997e+01  -3.6248985654026448e+01  -3.6238414823579099e+01  -3.6223132724100751e+01  -3.6210754091523249e+01  -3.6195862166457125e+01  -3.6183797228019280e+01  -3.6169004637471957e+01  -3.6158695003527960e+01  -3.6147695258710201e+01  -3.6133227494112433e+01  -3.6126959526511939e+01  -3.6110996849410022e+01  -3.6101223179101432e+01  -3.6088581968768501e+01  -3.6087832429534664e+01  -3.6075654247652444e+01  -3.6074713332826995e+01  -3.6074724855136495e+01  -3.6071201975693711e+01  -3.6088211856125369e+01  -3.6088395851899129e+01  -3.6105247255616874e+01  -3.6144447490260490e+01  -3.6184498272681274e+01  -3.6198493327696575e+01  -3.6329487644759723e+01  -3.6391658508880674e+01  -3.6599565972462912e+01  -3.6713207600053423e+01  -3.6868890726717680e+01  -4.0754573425578556e+01  -3.3968885649401486e+01  -2.4722098466102654e+01  -2.9708142757348369e+01  -2.9444895234385935e+01  -2.9959457977114553e+01  -2.9881367162105747e+01  -3.0025386096412074e+01  -2.9993689528172347e+01  -3.0033372017462273e+01  -3.0000354324875747e+01  -3.0003184064639711e+01  -2.9957328255930960e+01  -2.9938869694284261e+01  -2.9890074406053017e+01  -2.9855703078150988e+01  -2.9805558366369805e+01  -2.9763239745985643e+01  -2.9709663024013956e+01  -2.9661037640146262e+01  -2.9602928106170296e+01  -2.9547237762429297e+01  -2.9485978464893169e+01  -2.9428551737380939e+01  -2.9364984428382240e+01  -2.9307272548118746e+01  -2.9242657395074751e+01  -2.9179344454177723e+01  -2.9113406574916251e+01  -2.9046448116371288e+01  -2.8981111139720692e+01  -2.8911923720068028e+01  -2.8844508455274752e+01  -2.8776540351079237e+01  -2.8707196038002618e+01  -2.8638786689259522e+01  -2.8568615026187000e+01  -2.8498913243276405e+01  -2.8427727852472167e+01  -2.8356577953288241e+01  -2.8284761312006975e+01  -2.8212898790356366e+01  -2.8140384674019764e+01  -2.8067516244549743e+01  -2.7994900616376682e+01  -2.7921069466025049e+01  -2.7848256846833994e+01  -2.7773718984842461e+01  -2.7699835323097684e+01  -2.7624918798181561e+01  -2.7550958945749411e+01  -2.7475601037970140e+01  -2.7400694674317094e+01  -2.7325248371522999e+01  -2.7250081306282169e+01  -2.7173821810535440e+01  -2.7099115054278268e+01  -2.7022329052993861e+01  -2.6946120835226584e+01  -2.6869759234635659e+01  -2.6793628333928410e+01  -2.6716193660789671e+01  -2.6639609631978054e+01  -2.6562650215573438e+01  -2.6485023968927212e+01  -2.6408776400855256e+01  -2.6330616060759262e+01  -2.6254240895664566e+01  -2.6174986650960893e+01  -2.6098184722071366e+01  -2.6020294125674035e+01  -2.5942353431065367e+01  -2.5864465926380444e+01  -2.5786277727496287e+01  -2.5708173500436928e+01  -2.5629912092640414e+01  -2.5551121946972035e+01  -2.5473400432003082e+01  -2.5394465190310598e+01  -2.5316072773134291e+01  -2.5236745011732275e+01  -2.5159274001963475e+01  -2.5079843594445109e+01  -2.5001058970373528e+01  -2.4922190339933067e+01  -2.4843477507159854e+01  -2.4764064436487324e+01  -2.4685240579520855e+01  -2.4605857716799729e+01  -2.4528673697124951e+01  -2.4445970149809909e+01  -2.4368932594446864e+01  -2.4289247946029192e+01  -2.4209952544560775e+01  -2.4130648140273124e+01  -2.4051210698695613e+01  -2.3972204656433057e+01  -2.3892054657461443e+01  -2.3812962621847987e+01  -2.3733306163541911e+01  -2.3653980098194285e+01  -2.3574302414984519e+01  -2.3494726459669689e+01  -2.3415001855841872e+01  -2.3335532432336635e+01  -2.3255725794995438e+01  -2.3176179312487569e+01  -2.3096448176081260e+01  -2.3016848108462025e+01  -2.2935798557765246e+01  -2.2858343694040251e+01  -2.2777264865983010e+01  -2.2697619515552532e+01  -2.2617858053937436e+01  -2.2537876855058858e+01  -2.2459165665201450e+01  -2.2377370638797323e+01  -2.2298678521987949e+01  -2.2218758933300187e+01  -2.2137987902453748e+01  -2.2059572936486912e+01  -2.1979059328684549e+01  -2.1898086606874926e+01  -2.1820113699825306e+01  -2.1739137342561289e+01  -2.1659386154382670e+01  -2.1578755711275438e+01  -2.1500085223656882e+01  -2.1419465921433741e+01  -2.1338946378242529e+01  -2.1260241858012350e+01  -2.1179096165924797e+01  -2.1102297525353162e+01  -2.1017164383308405e+01  -2.0939924180202397e+01  -2.0859779865115442e+01  -2.0779695477902084e+01  -2.0699753850800402e+01  -2.0619659766790456e+01  -2.0540656510329615e+01  -2.0458815976512827e+01  -2.0379950181208308e+01  -2.0299139425833598e+01  -2.0220363334296859e+01  -2.0139571416904126e+01  -2.0059936205808796e+01  -1.9979686789035753e+01  -1.9899791677851304e+01  -1.9819081772732279e+01  -1.9740309266075315e+01  -1.9659719792233449e+01  -1.9578762731088453e+01  -1.9500506766957173e+01  -1.9419471778397920e+01  -1.9339599193841902e+01  -1.9259607331779655e+01  -1.9179500960508033e+01  -1.9099554019192812e+01  -1.9019470054359381e+01  -1.8939476715854187e+01  -1.8859487356829810e+01  -1.8779198000148504e+01  -1.8699638375998802e+01  -1.8619331864186297e+01  -1.8539522613952567e+01  -1.8459087663465063e+01  -1.8380360265377803e+01  -1.8298258612509471e+01  -1.8219416519225565e+01  -1.8139285974937451e+01  -1.8058996594629484e+01  -1.7979421156591041e+01  -1.7899176756504612e+01  -1.7818899453942976e+01  -1.7739385640013403e+01  -1.7659070678677843e+01  -1.7579205841377288e+01  -1.7498168299619064e+01  -1.7419995425472091e+01  -1.7338794380233644e+01  -1.7259340594963501e+01  -1.7178732721455223e+01  -1.7098943336393049e+01  -1.7019079060939756e+01  -1.6938803103150811e+01  -1.6858916318713320e+01  -1.6778809643784374e+01  -1.6698932521682103e+01  -1.6618832315962667e+01  -1.6538771199086280e+01  -1.6458972128428915e+01  -1.6378695389310742e+01  -1.6298589302798117e+01  -1.6219289395651000e+01  -1.6138560490077207e+01  -1.6058738541564548e+01  -1.5978