<?xml version="1.0"?>
<VTKFile type="UnstructuredGrid"  version="0.1"  >
<UnstructuredGrid>
<Piece  NumberOfPoints="5020" NumberOfCells="7838">
<Points>
<DataArray  type="Float64"  NumberOfComponents="3"  format="ascii">0 0.01 0  0 0 0  0.01 0 0  0.02 0 0  0.03 0 0  0.04 0 0  0.05 0 0  0.06 0 0  0.07000000000000001 0 0  0.08 0 0  0.09 0 0  0.1 0 0  0.11 0 0  0.12 0 0  0.13 0 0  0.14 0 0  0.15 0 0  0.16 0 0  0.17 0 0  0.18 0 0  0.19 0 0  0.2 0 0  0.21 0 0  0.22 0 0  0.23 0 0  0.24 0 0  0.25 0 0  0.26 0 0  0.27 0 0  0.28 0 0  0.29 0 0  0.3 0 0  0.31 0 0  0.32 0 0  0.33 0 0  0.34 0 0  0.35 0 0  0.36 0 0  0.37 0 0  0.38 0 0  0.39 0 0  0.4 0 0  0.41 0 0  0.42 0 0  0.43 0 0  0.44 0 0  0.45 0 0  0.46 0 0  0.47 0 0  0.48 0 0  0.49 0 0  0.5 0 0  0.51 0 0  0.52 0 0  0.53 0 0  0.54 0 0  0.55 0 0  0.5600000000000001 0 0  0.57 0 0  0.58 0 0  0.59 0 0  0.6 0 0  0.61 0 0  0.62 0 0  0.63 0 0  0.64 0 0  0.65 0 0  0.66 0 0  0.67 0 0  0.68 0 0  0.6899999999999999 0 0  0.7 0 0  0.71 0 0  0.72 0 0  0.73 0 0  0.74 0 0  0.75 0 0  0.76 0 0  0.77 0 0  0.78 0 0  0.79 0 0  0.8 0 0  0.8100000000000001 0 0  0.82 0 0  0.83 0 0  0.84 0 0  0.85 0 0  0.86 0 0  0.87 0 0  0.88 0 0  0.89 0 0  0.9 0 0  0.91 0 0  0.92 0 0  0.93 0 0  0.9399999999999999 0 0  0.95 0 0  0.96 0 0  0.97 0 0  0.98 0 0  0.99 0 0  1 0 0  1.01 0 0  1.02 0 0  1.03 0 0  1.04 0 0  1.05 0 0  1.06 0 0  1.07 0 0  1.08 0 0  1.09 0 0  1.1 0 0  1.11 0 0  1.12 0 0  1.13 0 0  1.14 0 0  1.15 0 0  1.16 0 0  1.17 0 0  1.18 0 0  1.19 0 0  1.2 0 0  1.21 0 0  1.22 0 0  1.23 0 0  1.24 0 0  1.25 0 0  1.26 0 0  1.27 0 0  1.28 0 0  1.29 0 0  1.3 0 0  1.31 0 0  1.32 0 0  1.33 0 0  1.34 0 0  1.35 0 0  1.36 0 0  1.37 0 0  1.38 0 0  1.39 0 0  1.4 0 0  1.41 0 0  1.42 0 0  1.43 0 0  1.44 0 0  1.45 0 0  1.46 0 0  1.47 0 0  1.48 0 0  1.49 0 0  1.5 0 0  1.51 0 0  1.52 0 0  1.53 0 0  1.54 0 0  1.55 0 0  1.56 0 0  1.57 0 0  1.58 0 0  1.59 0 0  1.6 0 0  1.61 0 0  1.62 0 0  1.63 0 0  1.64 0 0  1.65 0 0  1.66 0 0  1.67 0 0  1.68 0 0  1.69 0 0  1.7 0 0  1.71 0 0  1.72 0 0  1.73 0 0  1.74 0 0  1.75 0 0  1.76 0 0  1.77 0 0  1.78 0 0  1.79 0 0  1.8 0 0  1.81 0 0  1.82 0 0  1.83 0 0  1.84 0 0  1.85 0 0  1.86 0 0  1.87 0 0  1.88 0 0  1.89 0 0  1.9 0 0  1.91 0 0  1.92 0 0  1.93 0 0  1.94 0 0  1.95 0 0  1.96 0 0  1.97 0 0  1.98 0 0  1.99 0 0  2 0 0  2.01 0 0  2.02 0 0  2.03 0 0  2.04 0 0  2.05 0 0  2.06 0 0  2.07 0 0  2.08 0 0  2.09 0 0  2.1 0 0  2.11 0 0  2.12 0 0  2.13 0 0  2.14 0 0  2.15 0 0  2.16 0 0  2.17 0 0  2.18 0 0  2.19 0 0  2.2 0 0  2.21 0 0  2.22 0 0  2.23 0 0  2.24 0 0  2.25 0 0  2.26 0 0  2.27 0 0  2.28 0 0  2.29 0 0  2.3 0 0  2.31 0 0  2.32 0 0  2.33 0 0  2.34 0 0  2.35 0 0  2.36 0 0  2.37 0 0  2.38 0 0  2.39 0 0  2.4 0 0  2.41 0 0  2.42 0 0  2.43 0 0  2.44 0 0  2.45 0 0  2.46 0 0  2.47 0 0  2.48 0 0  2.49 0 0  2.5 0 0  2.51 0 0  2.52 0 0  2.53 0 0  2.54 0 0  2.55 0 0  2.56 0 0  2.57 0 0  2.58 0 0  2.59 0 0  2.6 0 0  2.61 0 0  2.62 0 0  2.63 0 0  2.64 0 0  2.65 0 0  2.66 0 0  2.67 0 0  2.68 0 0  2.69 0 0  2.7 0 0  2.71 0 0  2.72 0 0  2.73 0 0  2.74 0 0  2.75 0 0  2.76 0 0  2.77 0 0  2.78 0 0  2.79 0 0  2.8 0 0  2.81 0 0  2.82 0 0  2.83 0 0  2.84 0 0  2.85 0 0  2.86 0 0  2.87 0 0  2.88 0 0  2.89 0 0  2.9 0 0  2.91 0 0  2.92 0 0  2.93 0 0  2.94 0 0  2.95 0 0  2.96 0 0  2.97 0 0  2.98 0 0  2.99 0 0  3 0 0  3.01 0 0  3.02 0 0  3.03 0 0  3.04 0 0  3.05 0 0  3.06 0 0  3.07 0 0  3.08 0 0  3.09 0 0  3.1 0 0  3.11 0 0  3.12 0 0  3.13 0 0  3.14 0 0  3.15 0 0  3.16 0 0  3.17 0 0  3.18 0 0  3.19 0 0  3.2 0 0  3.21 0 0  3.22 0 0  3.23 0 0  3.24 0 0  3.25 0 0  3.26 0 0  3.27 0 0  3.28 0 0  3.29 0 0  3.3 0 0  3.31 0 0  3.32 0 0  3.33 0 0  3.34 0 0  3.35 0 0  3.36 0 0  3.37 0 0  3.38 0 0  3.39 0 0  3.4 0 0  3.41 0 0  3.42 0 0  3.43 0 0  3.44 0 0  3.45 0 0  3.46 0 0  3.47 0 0  3.48 0 0  3.49 0 0  3.5 0 0  3.51 0 0  3.52 0 0  3.53 0 0  3.54 0 0  3.55 0 0  3.56 0 0  3.57 0 0  3.58 0 0  3.59 0 0  3.6 0 0  3.61 0 0  3.62 0 0  3.63 0 0  3.64 0 0  3.65 0 0  3.66 0 0  3.67 0 0  3.68 0 0  3.69 0 0  3.7 0 0  3.71 0 0  3.72 0 0  3.73 0 0  3.74 0 0  3.75 0 0  3.76 0 0  3.77 0 0  3.78 0 0  3.79 0 0  3.8 0 0  3.81 0 0  3.82 0 0  3.83 0 0  3.84 0 0  3.85 0 0  3.86 0 0  3.87 0 0  3.88 0 0  3.89 0 0  3.9 0 0  3.91 0 0  3.92 0 0  3.93 0 0  3.94 0 0  3.95 0 0  3.96 0 0  3.97 0 0  3.98 0 0  3.99 0 0  4 0 0  4.01 -0.007853658655910169 0  4.02 -0.01570537953906381 0  4.03 -0.02355322535482153 0  4.04 -0.03139525976465671 0  4.05 -0.03922954786392233 0  4.06 -0.04705415665925685 0  4.07 -0.05486715554552286 0  4.08 -0.06266661678215218 0  4.09 -0.07045061596879122 0  4.1 -0.07821723252011516 0  4.11 -0.08596455013970501 0  4.12 -0.09369065729286238 0  4.13 -0.1013936476782562 0  4.14 -0.109071620698271 0  4.15 -0.116722681927953 0  4.16 -0.1243449435824275 0  4.17 -0.1319365249826864 0  4.18 -0.1394955530196144 0  4.19 -0.1470201626161523 0  4.2 -0.1545084971874738 0  4.21 -0.1619587090990747 0  4.22 -0.1693689601226455 0  4.23 -0.1767374218896289 0  4.24 -0.1840622763423391 0  4.25 -0.1913417161825449 0  4.26 -0.1985739453173901 0  4.27 -0.2057571793025541 0  4.28 -0.2128896457825365 0  4.29 -0.2199695849279576 0  4.3 -0.2269952498697733 0  4.31 -0.2339649071302864 0  4.32 -0.2408768370508579 0  4.33 -0.2477293342162038 0  4.34 -0.2545207078751855 0  4.35 -0.2612492823579742 0  4.36 -0.2679133974894985 0  4.37 -0.274511408999066 0  4.38 -0.2810416889260652 0  4.39 -0.2875026260216391 0  4.4 -0.2938926261462368 0  4.41 -0.3002101126629421 0  4.42 -0.3064535268264882 0  4.43 -0.3126213281678524 0  4.44 -0.3187119948743451 0  4.45 -0.3247240241650919 0  4.46 -0.3306559326618259 0  4.47 -0.3365062567548865 0  4.48 -0.3422735529643445 0  4.49 -0.3479563982961573 0  4.5 -0.3535533905932737 0  4.51 -0.3590631488815943 0  4.52 -0.3644843137107056 0  4.53 -0.369815547489305 0  4.54 -0.3750555348152298 0  4.55 -0.3802029828000154 0  4.56 -0.3852566213878944 0  4.57 -0.390215203669165 0  4.58 -0.3950775061878452 0  4.59 -0.3998423292435452 0  4.6 -0.4045084971874736 0  4.61 -0.4090748587125118 0  4.62 -0.413540287137281 0  4.63 -0.4179036806841351 0  4.64 -0.4221639627510074 0  4.65 -0.4263200821770463 0  4.66 -0.4303710135019718 0  4.67 -0.4343157572190955 0  4.68 -0.4381533400219317 0  4.69 -0.4418828150443468 0  4.7 -0.4455032620941839 0  4.71 -0.4490137878803078 0  4.72 -0.4524135262330097 0  4.73 -0.4557016383177228 0  4.74 -0.4588773128419906 0  4.75 -0.4619397662556434 0  4.76 -0.4648882429441256 0  4.77 -0.4677220154149335 0  4.78 -0.4704403844771128 0  4.79 -0.4730426794137726 0  4.8 -0.4755282581475768 0  4.81 -0.477896507399165 0  4.82 -0.4801468428384716 0  4.83 -0.482278709228899 0  4.84 -0.4842915805643155 0  4.85 -0.4861849601988382 0  4.86 -0.4879583809693738 0  4.87 -0.4896114053108829 0  4.88 -0.4911436253643443 0  4.89 -0.4925546630773869 0  4.9 -0.4938441702975689 0  4.91 -0.4950118288582788 0  4.92 -0.4960573506572389 0  4.93 -0.4969804777275898 0  4.94 -0.4977809823015401 0  4.95 -0.498458666866564 0  4.96 -0.4990133642141358 0  4.97 -0.499444937480985 0  4.98 -0.4997532801828658 0  4.99 -0.4999383162408303 0  5 -0.5 0  5.01 -0.4999383162408303 0  5.02 -0.4997532801828658 0  5.03 -0.499444937480985 0  5.04 -0.4990133642141358 0  5.05 -0.498458666866564 0  5.06 -0.4977809823015401 0  5.07 -0.4969804777275898 0  5.08 -0.4960573506572389 0  5.09 -0.4950118288582788 0  5.1 -0.4938441702975689 0  5.11 -0.4925546630773869 0  5.12 -0.4911436253643443 0  5.13 -0.4896114053108829 0  5.14 -0.4879583809693738 0  5.15 -0.4861849601988382 0  5.16 -0.4842915805643155 0  5.17 -0.4822787092288991 0  5.18 -0.4801468428384716 0  5.19 -0.477896507399165 0  5.2 -0.4755282581475768 0  5.21 -0.4730426794137727 0  5.22 -0.4704403844771128 0  5.23 -0.4677220154149336 0  5.24 -0.4648882429441257 0  5.25 -0.4619397662556434 0  5.26 -0.4588773128419906 0  5.27 -0.4557016383177228 0  5.28 -0.4524135262330097 0  5.29 -0.4490137878803078 0  5.3 -0.4455032620941841 0  5.31 -0.4418828150443468 0  5.32 -0.4381533400219317 0  5.33 -0.4343157572190956 0  5.34 -0.4303710135019719 0  5.35 -0.4263200821770463 0  5.36 -0.4221639627510075 0  5.37 -0.4179036806841351 0  5.38 -0.413540287137281 0  5.39 -0.4090748587125119 0  5.4 -0.4045084971874736 0  5.41 -0.3998423292435452 0  5.42 -0.3950775061878453 0  5.43 -0.390215203669165 0  5.44 -0.3852566213878945 0  5.45 -0.3802029828000154 0  5.46 -0.3750555348152299 0  5.47 -0.369815547489305 0  5.48 -0.3644843137107056 0  5.49 -0.3590631488815942 0  5.5 -0.3535533905932738 0  5.51 -0.3479563982961574 0  5.52 -0.3422735529643446 0  5.53 -0.3365062567548867 0  5.54 -0.3306559326618259 0  5.55 -0.3247240241650921 0  5.56 -0.3187119948743451 0  5.57 -0.3126213281678525 0  5.58 -0.3064535268264882 0  5.59 -0.3002101126629422 0  5.6 -0.2938926261462368 0  5.61 -0.2875026260216392 0  5.62 -0.2810416889260652 0  5.63 -0.274511408999066 0  5.64 -0.2679133974894985 0  5.65 -0.2612492823579743 0  5.66 -0.2545207078751855 0  5.67 -0.2477293342162039 0  5.68 -0.2408768370508578 0  5.69 -0.2339649071302865 0  5.7 -0.2269952498697732 0  5.71 -0.2199695849279577 0  5.72 -0.2128896457825364 0  5.73 -0.2057571793025542 0  5.74 -0.1985739453173901 0  5.75 -0.1913417161825449 0  5.76 -0.1840622763423393 0  5.77 -0.1767374218896289 0  5.78 -0.1693689601226457 0  5.79 -0.1619587090990747 0  5.8 -0.154508497187474 0  5.81 -0.1470201626161523 0  5.82 -0.1394955530196146 0  5.83 -0.1319365249826864 0  5.84 -0.1243449435824276 0  5.85 -0.116722681927953 0  5.86 -0.1090716206982712 0  5.87 -0.1013936476782562 0  5.88 -0.09369065729286251 0  5.89 -0.08596455013970501 0  5.9 -0.07821723252011527 0  5.91 -0.07045061596879121 0  5.92 -0.06266661678215227 0  5.93 -0.05486715554552282 0  5.94 -0.04705415665925695 0  5.95 -0.03922954786392231 0  5.96 -0.03139525976465679 0  5.97 -0.02355322535482148 0  5.98 -0.0157053795390639 0  5.99 -0.007853658655910133 0  6 -6.123233995736766e-17 0  6.01 0 0  6.02 0 0  6.03 0 0  6.04 0 0  6.05 0 0  6.06 0 0  6.07 0 0  6.08 0 0  6.09 0 0  6.1 0 0  6.11 0 0  6.12 0 0  6.13 0 0  6.14 0 0  6.15 0 0  6.16 0 0  6.17 0 0  6
[...]
<PointData  Vectors="f_2070-0"> 
<DataArray  type="Float64"  Name="f_2070-0"  NumberOfComponents="3" format="ascii">3.9599999632273751e-02 0.0000000000000000e+00 0.0000000000000000e+00  0.0000000000000000e+00 0.0000000000000000e+00 0.0000000000000000e+00  0.0000000000000000e+00 0.0000000000000000e+00 0.0000000000000000e+00  0.0000000000000000e+00 0.0000000000000000e+00 0.0000000000000000e+00  0.0000000000000000e+00 0.0000000000000000e+00 0.0000000000000000e+00  0.0000000000000000e+00 0.0000000000000000e+00 0.0000000000000000e+00  0.0000000000000000e+00 0.0000000000000000e+00 0.0000000000000000e+00  0.0000000000000000e+00 0.0000000000000000e+00 0.0000000000000000e+00  0.0000000000000000e+00 0.0000000000000000e+00 0.0000000000000000e+00  0.0000000000000000e+00 0.0000000000000000e+00 0.0000000000000000e+00  0.0000000000000000e+00 0.0000000000000000e+00 0.0000000000000000e+00  0.0000000000000000e+00 0.0000000000000000e+00 0.0000000000000000e+00  0.0000000000000000e+00 0.0000000000000000e+00 0.0000000000000000e+00  0.0000000000000000e+00 0.0000000000000000e+00 0.0000000000000000e+00  0.0000000000000000e+00 0.0000000000000000e+00 0.0000000000000000e+00  0.0000000000000000e+00 0.0000000000000000e+00 0.0000000000000000e+00  0.0000000000000000e+00 0.0000000000000000e+00 0.0000000000000000e+00  0.0000000000000000e+00 0.0000000000000000e+00 0.0000000000000000e+00  0.0000000000000000e+00 0.0000000000000000e+00 0.0000000000000000e+00  0.0000000000000000e+00 0.0000000000000000e+00 0.0000000000000000e+00  0.0000000000000000e+00 0.0000000000000000e+00 0.0000000000000000e+00  0.0000000000000000e+00 0.0000000000000000e+00 0.0000000000000000e+00  0.0000000000000000e+00 0.0000000000000000e+00 0.0000000000000000e+00  0.0000000000000000e+00 0.0000000000000000e+00 0.0000000000000000e+00  0.0000000000000000e+00 0.0000000000000000e+00 0.0000000000000000e+00  0.0000000000000000e+00 0.0000000000000000e+00 0.0000000000000000e+00  0.0000000000000000e+00 0.0000000000000000e+00 0.0000000000000000e+00  0.0000000000000000e+00 0.0000000000000000e+00 0.0000000000000000e+00  0.0000000000000000e+00 0.0000000000000000e+00 0.0000000000000000e+00  0.0000000000000000e+00 0.0000000000000000e+00 0.0000000000000000e+00  0.0000000000000000e+00 0.0000000000000000e+00 0.0000000000000000e+00  0.0000000000000000e+00 0.0000000000000000e+00 0.0000000000000000e+00  0.0000000000000000e+00 0.0000000000000000e+00 0.0000000000000000e+00  0.0000000000000000e+00 0.0000000000000000e+00 0.0000000000000000e+00  0.0000000000000000e+00 0.0000000000000000e+00 0.0000000000000000e+00  0.0000000000000000e+00 0.0000000000000000e+00 0.0000000000000000e+00  0.0000000000000000e+00 0.0000000000000000e+00 0.0000000000000000e+00  0.0000000000000000e+00 0.0000000000000000e+00 0.0000000000000000e+00  0.0000000000000000e+00 0.0000000000000000e+00 0.0000000000000000e+00  0.0000000000000000e+00 0.0000000000000000e+00 0.0000000000000000e+00  0.0000000000000000e+00 0.0000000000000000e+00 0.0000000000000000e+00  0.0000000000000000e+00 0.0000000000000000e+00 0.0000000000000000e+00  0.0000000000000000e+00 0.0000000000000000e+00 0.0000000000000000e+00  0.0000000000000000e+00 0.0000000000000000e+00 0.0000000000000000e+00  0.0000000000000000e+00 0.0000000000000000e+00 0.0000000000000000e+00  0.0000000000000000e+00 0.0000000000000000e+00 0.0000000000000000e+00  0.0000000000000000e+00 0.0000000000000000e+00 0.0000000000000000e+00  0.0000000000000000e+00 0.0000000000000000e+00 0.0000000000000000e+00  0.0000000000000000e+00 0.0000000000000000e+00 0.0000000000000000e+00  0.0000000000000000e+00 0.0000000000000000e+00 0.0000000000000000e+00  0.0000000000000000e+00 0.0000000000000000e+00 0.0000000000000000e+00  0.0000000000000000e+00 0.0000000000000000e+00 0.0000000000000000e+00  0.0000000000000000e+00 0.0000000000000000e+00 0.0000000000000000e+00  0.0000000000000000e+00 0.0000000000000000e+00 0.0000000000000000e+00  0.0000000000000000e+00 0.0000000000000000e+00 0.0000000000000000e+00  0.0000000000000000e+00 0.0000000000000000e+00 0.0000000000000000e+00  0.0000000000000000e+00 0.0000000000000000e+00 0.0000000000000000e+00  0.0000000000000000e+00 0.0000000000000000e+00 0.0000000000000000e+00  0.0000000000000000e+00 0.0000000000000000e+00 0.0000000000000000e+00  0.0000000000000000e+00 0.0000000000000000e+00 0.0000000000000000e+00  0.0000000000000000e+00 0.0000000000000000e+00 0.0000000000000000e+00  0.0000000000000000e+00 0.0000000000000000e+00 0.0000000000000000e+00  0.0000000000000000e+00 0.0000000000000000e+00 0.0000000000000000e+00  0.0000000000000000e+00 0.0000000000000000e+00 0.0000000000000000e+00  0.0000000000000000e+00 0.0000000000000000e+00 0.0000000000000000e+00  0.0000000000000000e+00 0.0000000000000000e+00 0.0000000000000000e+00  0.0000000000000000e+00 0.0000000000000000e+00 0.0000000000000000e+00  0.0000000000000000e+00 0.0000000000000000e+00 0.0000000000000000e+00  0.0000000000000000e+00 0.0000000000000000e+00 0.0000000000000000e+00  0.0000000000000000e+00 0.0000000000000000e+00 0.0000000000000000e+00  0.0000000000000000e+00 0.0000000000000000e+00 0.0000000000000000e+00  0.0000000000000000e+00 0.0000000000000000e+00 0.0000000000000000e+00  0.0000000000000000e+00 0.0000000000000000e+00 0.0000000000000000e+00  0.0000000000000000e+00 0.0000000000000000e+00 0.0000000000000000e+00  0.0000000000000000e+00 0.0000000000000000e+00 0.0000000000000000e+00  0.0000000000000000e+00 0.0000000000000000e+00 0.0000000000000000e+00  0.0000000000000000e+00 0.0000000000000000e+00 0.0000000000000000e+00  0.0000000000000000e+00 0.0000000000000000e+00 0.0000000000000000e+00  0.0000000000000000e+00 0.0000000000000000e+00 0.0000000000000000e+00  0.0000000000000000e+00 0.0000000000000000e+00 0.0000000000000000e+00  0.0000000000000000e+00 0.0000000000000000e+00 0.0000000000000000e+00  0.0000000000000000e+00 0.0000000000000000e+00 0.0000000000000000e+00  0.0000000000000000e+00 0.0000000000000000e+00 0.0000000000000000e+00  0.0000000000000000e+00 0.0000000000000000e+00 0.0000000000000000e+00  0.0000000000000000e+00 0.0000000000000000e+00 0.0000000000000000e+00  0.0000000000000000e+00 0.0000000000000000e+00 0.0000000000000000e+00  0.0000000000000000e+00 0.0000000000000000e+00 0.0000000000000000e+00  0.0000000000000000e+00 0.0000000000000000e+00 0.0000000000000000e+00  0.0000000000000000e+00 0.0000000000000000e+00 0.0000000000000000e+00  0.0000000000000000e+00 0.0000000000000000e+00 0.0000000000000000e+00  0.0000000000000000e+00 0.0000000000000000e+00 0.0000000000000000e+00  0.0000000000000000e+00 0.0000000000000000e+00 0.0000000000000000e+00  0.0000000000000000e+00 0.0000000000000000e+00 0.0000000000000000e+00  0.0000000000000000e+00 0.0000000000000000e+00 0.0000000000000000e+00  0.0000000000000000e+00 0.0000000000000000e+00 0.0000000000000000e+00  0.0000000000000000e+00 0.0000000000000000e+00 0.0000000000000000e+00  0.0000000000000000e+00 0.0000000000000000e+00 0.0000000000000000e+00  0.0000000000000000e+00 0.0000000000000000e+00 0.0000000000000000e+00  0.0000000000000000e+00 0.0000000000000000e+00 0.0000000000000000e+00  0.0000000000000000e+00 0.0000000000000000e+00 0.0000000000000000e+00  0.0000000000000000e+00 0.0000000000000000e+00 0.0000000000000000e+00  0.0000000000000000e+00 0.0000000000000000e+00 0.0000000000000000e+00  0.0000000000000000e+00 0.0000000000000000e+00 0.0000000000000000e+00  0.0000000000000000e+00 0.0000000000000000e+00 0.0000000000000000e+00  0.0000000000000000e+00 0.0000000000000000e+00 0.0000000000000000e+00  0.0000000000000000e+00 0.0000000000000000e+00 0.0000000000000000e+00  0.0000000000000000e+00 0.0000000000000000e+00 0.0000000000000000e+00  0.0000000000000000e+00 0.0000000000000000e+00 0.0000000000000000e+00  0.0000000000000000e+00 0.0000000000000000e+00 0.0000000000000000e+00  0.0000000000000000e+00 0.0000000000000000e+00 0.0000000000000000e+00  0.0000000000000000e+00 0.0000000000000000e+00 0.0000000000000000e+00  0.0000000000000000e+00 0.0000000000000000e+00 0.0000000000000000e+00  0.0000000000000000e+00 0.0000000000000000e+00 0.0000000000000000e+00  0.0000000000000000e+00 0.0000000000000000e+00 0.0000000000000000e+00  0.0000000000000000e+00 0.0000000000000000e+00 0.0000000000000000e+00  0.0000000000000000e+00 0.0000000000000000e+00 0.0000000000000000e+00  0.0000000000000000e+00 0.0000000000000000e+00 0.0000000000000000e+00  0.0000000000000000e+00 0.0000000000000000e+00 0.0000000000000000e+00  0.0000000000000000e+00 0.0000000000000000e+00 0.0000000000000000e+00  0.0000000000000000e+00 0.0000000000000000e+00 0.0000000000000000e+00  0.0000000000000000e+00 0.0000000000000000e+00 0.0000000000000000e+00  0.0000000000000000e+00 0.0000000000000000e+00 0.0000000000000000e+00  0.0000000000000000e+00 0.0000000000000000e+00 0.0000000000000000e+00  0.0000000000000000e+00 0.0000000000000000e+00 0.0000000000000000e+00  0.0000000000000000e+00 0.0000000000000000e+00 0.0000000000000000e+00  0.0000000000000000e+00 0.0000000000000000e+00 0.0000000000000000e+00  0.0000000000000000e+00 0.0000000000000000e+00 0.0000000000000000e+00  0.0000000000000000e+00 0.0000000000000000e+00 0.0000000000000000e+00  0.0000000000000000e+00 0.0000000000000000e+00 0.0000000000000000e+00  0.0000000000000000e+00 0.0000000000000000e+00 0.0000000000000000e+00  0.0000000000000000e+00 0.0000000000000000e+00 0.0000000000000000e+00  0.0000000000000000e+00 0.0000000000000000e+00 0.0000000000000000e+00  0.0000000000000000e+00 0.0000000000000000e+00 0.0000000000000000e+00  0.0000000000000000e+00 0.0000000000000000e+00 0.0000000000000000e+00  0.0000000000000000e+00 0.0000000000000000e+00 0.0000000000000000e+00  0.0000000000000000e+00 0.0000000000000000e+00 0.0000000000000000e+00  0.0000000000000000e+00 0.0000000000000000e+00 0.0000000000000000e+00  0.0000000000000000e+00 0.0000000000000000e+00 0.0000000000000000e+00  0.0000000000000000e+00 0.0000000000000000e+00 0.0000000000000000e+00  0.0000000000000000e+00 0.0000000000000000e+00 0.0000000000000000e+00  0.0000000000000000e+00 0.0000000000000000e+00 0.0000000000000000e+00  0.0000000000000000e+00 0.0000000000000000e+00 0.0000000000000000e+00  0.0000000000000000e+00 0.0000000000000000e+00 0.0000000000000000e+00  0.0000000000000000e+00 0.0000000000000000e+00 0.0000000000000000e+00  0.0000000000000000e+00 0.0000000000000000e+00 0.0000000000000000e+00  0.0000000000000000e+00 0.0000000000000000e+00 0.0000000000000000e+00  0.0000000000000000e+00 0.0000000000000000e+00 0.0000000000000000e+00  0.0000000000000000e+00 0.0000000000000000e+00 0.0000000000000000e+00  0.0000000000000000e+00 0.0000000000000000e+00 0.0000000000000000e+00  0.0000000000000000e+00 0.0000000000000000e+00 0.0000000000000000e+00  0.0000000000000000e+00 0.0000000000000000e+00 0.0000000000000000e+00  0.0000000000000000e+00 0.0000000000000000e+00 0.0000000000000000e+00  0.0000000000000000e+00 0.0000000000000000e+00 0.0000000000000000e+00  0.0000000000000000e+00 0.0000000000000000e+00 0.0000000000000000e+00  0.0000000000000000e+00 0.0000000000000000e+00 0.0000000000000000e+00  0.0000000000000000e+00 0.0000000000000000e+00 0.0000000000000000e+00  0.0000000000000000e+00 0.0000000000000000e+00 0.0000000000000000e+00  0.0000000000000000e+00 0.0000000000000000e+00 0.0000000000000000e+00  0.0000000000000000e+00 0.0000000000000000e+00 0.0000000000000000e+00  0.0000000000000000e+00 0.0000000000000000e+00 0.0000000000000000e+00  0.0000000000000000e+00 0.0000000000000000e+00 0.0000000000000000e+00  0.0000000000000000e+00 0.0000000000000000e+00 0.0000000000000000e+00  0.0000000000000000e+00 0.0000000000000000e+00 0.0000000000000000e+00  0.0000000000000000e+00 0.0000000000000000e+00 0.0000000000000000e+00  0.0000000000000000e+00 0.0000000000000000e+00 0.0000000000000000e+00  0.0000000000000000e+00 0.0000000000000000e+00 0.0000000000000000e+00  0.0000000000000000e+00 0.0000000000000000e+00 0.0000000000000000e+00  0.0000000000000000e+00 0.0000000000000000e+00 0.0000000000000000e+00  0.0000000000000000e+00 0.0000000000000000e+00 0.0000000000000000e+00  0.0000000000000000e+00 0.0000000000000000e+00 0.0000000000000000e+00  0.0000000000000000e+00 0.0000000000000000e+00 0.0000000000000000e+00  0.0000000000000000e+00 0.0000000000000000e+00 0.0000000000000000e+00  0.0000000000000000e+00 0.0000000000000000e+00 0.0000000000000000e+00  0.0000000000000000e+00 0.0000000000000000e+00 0.0000000000000000e+00  0.0000000000000000e+00 0.0000000000000000e+00 0.0000000000000000e+00  0.0000000000000000e+00 0.0000000000000000e+00 0.0000000000000000e+00  0.0000000000000000e+00 0.0000000000000000e+00 0.0000000000000000e+00  0.0000000000000000e+00 0.0000000000000000e+00 0.0000000000000000e+00  0.0000000000000000e+00 0.0000000000000000e+00 0.0000000000000000e+00  0.0000000000000000e+00 0.0000000000000000e+00 0.0000000000000000e+00  0.0000000000000000e+00 0.0000000000000000e+00 0.0000000000000000e+00  0.0000000000000000e+00 0.0000000000000000e+00 0.0000000000000000e+00  0.0000000000000000e+00 0.0000000000000000e+00 0.0000000000000000e+00  0.0000000000000000e+00 0.0000000000000000e+00 0.0000000000000000e+00  0.0000000000000000e+00 0.0000000000000000e+00 0.0000000000000000e+00  0.0000000000000000e+00 0.0000000000000000e+00 0.0000000000000000e+00  0.0000000000000000e+00 0.0000000000000000e+00 0.0000000000000000e+00  0.0000000000000000e+00 0.0000000000000000e+00 0.0000000000000000e+00  0.0000000000000000e+00 0.0000000000000000e+00 0.0000000000000000e+00  0.0000000000000000e+00 0.0000000000000000e+00 0.0000000000000000e+00  0.0000000000000000e+00 0.0000000000000000e+00 0.0000000000000000e+00  0.0000000000000000e+00 0.0000000000000000e+00 0.0000000000000000e+00  0.0000000000000000e+00 0.0000000000000000e+00 0.0000000000000000e+00  0.0000000000000000e+00 0.0000000000000000e+00 0.0000000000000000e+00  0.0000000000000000e+00 0.0000000000000000e+00 0.0000000000000000e+00  0.0000000000000000e+00 0.0000000000000000e+00 0.0000000000000000e+00  0.0000000000000000e+00 0.0000000000000000e+00 0.0000000000000000e+00  0.0000000000000000e+00 0.0000000000000000e+00 0.0000000000000000e+00  0.0000000000000000e+00 0.0000000000000000e+00 0.0000000000000000e+00  0.0000000000000000e+00 0.0000000000000000e+00 0.0000000000000000e+00  0.0000000000000000e+00 0.0000000000000000e+00 0.0000000000000000e+00  0.0000000000000000e+00 0.0000000000000000e+00 0.0000000000000000e+00  0.0000000000000000e+00 0.0000000000000000e+00 0.0000000000000000e+00  0.0000000000000000e+00 0.0000000000000000e+00 0.0000000000000000e+00  0.0000000000000000e+00 0.0000000000000000e+00 0.0000000000000000e+00  0.0000000000000000e+00 0.0000000000000000e+00 0.0000000000000000e+00  0.0000000000000000e+00 0.0000000000000000e+00 0.0000000000000000e+00  0.0000000000000000e+00 0.0000000000000000e+00 0.0000000000000000e+00  0.0000000000000000e+00 0.0000000000000000e+00 0.0000000000000000e+00  0.0000000000000000e+00 0.0000000000000000e+00 0.0000000000000000e+00  0.0000000000000000e+00 0.0000000000000000e+00 0.0000000000000000e+00  0.0000000000000000e+00 0.0000000000000000e+00 0.0000000000000000e+00  0.0000000000000000e+00 0.0000000000000000e+00 0.0000000000000000e+00  0.0000000000000000e+00 0.0000000000000000e+00 0.0000000000000000e+00  0.0000000000000000e+00 0.0000000000000000e+00 0.0000000000000000e+00  0.0000000000000000e+00 0.0000000000000000e+00 0.0000000000000000e+00  0.0000000000000000e+00 0.0000000000000000e+00 0.0000000000000000e+00  0.0000000000000000e+00 0.0000000000000000e+00 0.0000000000000000e+00  0.0000000000000000e+00 0.0000000000000000e+00 0.0000000000000000e+00  0.0000000000000000e+00 0.0000000000000000e+00 0.0000000000000000e+00  0.0000000000000000e+00 0.0000000000000000e+00 0.0000000000000000e+00  0.0000000000000000e+00 0.0000000000000000e+00 0.0000000000000000e+00  0.0000000000000000e+00 0.0000000000000000e+00 0.0000000000000000e+00  0.0000000000000000e+00 0.0000000000000000e+00 0.0000000000000000e+00  0.0000000000000000e+00 0.0000000000000000e+00 0.0000000000000000e+00  0.0000000000000000e+00 0.0000000000000000e+00 0.0000000000000000e+00  0.0000000000000000e+00 0.0000000000000000e+00 0.0000000000000000e+00  0.0000000000000000e+00 0.0000000000000000e+00 0.0000000000000000e+00  0.0000000000000000e+00 0.0000000000000000e+00 0.0000000000000000e+00  0.0000000000000000e+00 0.0000000000000000e+00 0.0000000000000000e+00  0.0000000000000000e+00 0.0000000000000000e+00 0.0000000000000000e+00  0.0000000000000000e+00 0.0000000000000000e+00 0.0000000000000000e+00  0.0000000000000000e+00 0.0000000000000000e+00 0.0000000000000000e+00  0.0000000000000000e+00 0.0000000000000000e+00 0.0000000000000000e+00  0.0000000000000000e+00 0.0000000000000000e+00 0.0000000000000000e+00  0.0000000000000000e+00 0.0000000000000000e+00 0.0000000000000000e+00  0.0000000000000000e+00 0.0000000000000000e+00 0.0000000000000000e+00  0.0000000000000000e+00 0.0000000000000000e+00 0.0000000000000000e+00  0.0000000000000000e+00 0.0000000000000000e+00 0.0000000000000000e+00  0.0000000000000000e+00 0.0000000000000000e+00 0.0000000000000000e+00  0.0000000000000000e+00 0.0000000000000000e+00 0.0000000000000000e+00  0.0000000000000000e+00 0.0000000000000000e+00 0.0000000000000000e+00  0.0000000000000000e+00 0.0000000000000000e+00 0.0000000000000000e+00  0.0000000000000000e+00 0.0000000000000000e+00 0.0000000000000000e+00  0.0000000000000000e+00 0.0000000000000000e+00 0.0000000000000000e+00  0.0000000000000000e+00 0.0000000000000000e+00 0.0000000000000000e+00  0.0000000000000000e+00 0.0000000000000000e+00 0.0000000000000000e+00  0.0000000000000000e+00 0.0000000000000000e+00 0.0000000000000000e+00  0.0000000000000000e+00 0.0000000000000000e+00 0.0000000000000000e+00  0.0000000000000000e+00 0.0000000000000000e+00 0.0000000000000000e+00  0.0000000000000000e+00 0.0000000000000000e+00 0.0000000000000000e+00  0.0000000000000000e+00 0.0000000000000000e+00 0.0000000000000000e+00  0.0000000000000000e+00 0.0000000000000000e+00 0.0000000000000000e+00  0.0000000000000000e+00 0.0000000000000000e+00 0.0000000000000000e+00  0.0000000000000000e+00 0.0000000000000000e+00 0.0000000000000000e+00  0.0000000000000000e+00 0.0000000000000000e+00 0.0000000000000000e+00  0.0000000000000000e+00 0.0000000000000000e+00 0.0000000000000000e+00  0.0000000000000000e+00 0.0000000000000000e+00 0.0000000000000000e+00  0.0000000000000000e+00 0.0000000000000000e+00 0.0000000000000000e+00  0.0000000000000000e+00 0.0000000000000000e+00 0.0000000000000000e+00  0.0000000000000000e+00 0.0000000000000000e+00 0.0000000000000000e+00  0.0000000000000000e+00 0.0000000000000000e+00 0.0000000000000000e+00  0.0000000000000000e+00 0.0000000000000000e+00 0.0000000000000000e+00  0.0000000000000000e+00 0.0000000000000000e+00 0.0000000000000000e+00  0.0000000000000000e+00 0.0000000000000000e+00 0.0000000000000000e+00  0.0000000000000000e+00 0.0000000000000000e+00 0.0000000000000000e+00  0.0000000000000000e+00 0.0000000000000000e+00 0.0000000000000000e+00  0.0000000000000000e+00 0.0000000000000000e+00 0.0000000000000000e+00  0.0000000000000000e+00 0.0000000000000000e+00 0.0000000000000000e+00  0.0000000000000000e+00 0.0000000000000000e+00 0.0000000000000000e+00  0.0000000000000000e+00 0.0000000000000000e+00 0.0000000000000000e+00  0.0000000000000000e+00 0.0000000000000000e+00 0.0000000000000000e+00  0.0000000000000000e+00 0.0000000000000000e+00 0.0000000000000000e+00  0.0000000000000000e+00 0.0000000000000000e+00 0.0000000000000000e+00  0.0000000000000000e+00 0.0000000000000000e+00 0.0000000000000000e+00  0.0000000000000000e+00 0.0000000000000000e+00 0.0000000000000000e+00  0.0000000000000000e+00 0.0000000000000000e+00 0.0000000000000000e+00  0.0000000000000000e+00 0.0000000000000000e+00 0.0000000000000000e+00  0.0000000000000000e+00 0.0000000000000000e+00 0.0000000000000000e+00  0.0000000000000000e+00 0.0000000000000000e+00 0.0000000000000000e+00  0.0000000000000000e+00 0.0000000000000000e+00 0.0000000000000000e+00  0.0000000000000000e+00 0.0000000000000000e+00 0.0000000000000000e+00  0.0000000000000000e+00 0.0000000000000000e+00 0.0000000000000000e+00  0.0000000000000000e+00 0.0000000000000000e+00 0.0000000000000000e+00  0.00