<?xml version="1.0"?>
<VTKFile type="UnstructuredGrid"  version="0.1"  >
<UnstructuredGrid>
<Piece  NumberOfPoints="5023" NumberOfCells="7844">
<Points>
<DataArray  type="Float64"  NumberOfComponents="3"  format="ascii">0 0.01 0  0 0 0  0.01 0 0  0.02 0 0  0.03 0 0  0.04 0 0  0.05 0 0  0.06 0 0  0.07000000000000001 0 0  0.08 0 0  0.09 0 0  0.1 0 0  0.11 0 0  0.12 0 0  0.13 0 0  0.14 0 0  0.15 0 0  0.16 0 0  0.17 0 0  0.18 0 0  0.19 0 0  0.2 0 0  0.21 0 0  0.22 0 0  0.23 0 0  0.24 0 0  0.25 0 0  0.26 0 0  0.27 0 0  0.28 0 0  0.29 0 0  0.3 0 0  0.31 0 0  0.32 0 0  0.33 0 0  0.34 0 0  0.35 0 0  0.36 0 0  0.37 0 0  0.38 0 0  0.39 0 0  0.4 0 0  0.41 0 0  0.42 0 0  0.43 0 0  0.44 0 0  0.45 0 0  0.46 0 0  0.47 0 0  0.48 0 0  0.49 0 0  0.5 0 0  0.51 0 0  0.52 0 0  0.53 0 0  0.54 0 0  0.55 0 0  0.5600000000000001 0 0  0.57 0 0  0.58 0 0  0.59 0 0  0.6 0 0  0.61 0 0  0.62 0 0  0.63 0 0  0.64 0 0  0.65 0 0  0.66 0 0  0.67 0 0  0.68 0 0  0.6899999999999999 0 0  0.7 0 0  0.71 0 0  0.72 0 0  0.73 0 0  0.74 0 0  0.75 0 0  0.76 0 0  0.77 0 0  0.78 0 0  0.79 0 0  0.8 0 0  0.8100000000000001 0 0  0.82 0 0  0.83 0 0  0.84 0 0  0.85 0 0  0.86 0 0  0.87 0 0  0.88 0 0  0.89 0 0  0.9 0 0  0.91 0 0  0.92 0 0  0.93 0 0  0.9399999999999999 0 0  0.95 0 0  0.96 0 0  0.97 0 0  0.98 0 0  0.99 0 0  1 0 0  1.01 0 0  1.02 0 0  1.03 0 0  1.04 0 0  1.05 0 0  1.06 0 0  1.07 0 0  1.08 0 0  1.09 0 0  1.1 0 0  1.11 0 0  1.12 0 0  1.13 0 0  1.14 0 0  1.15 0 0  1.16 0 0  1.17 0 0  1.18 0 0  1.19 0 0  1.2 0 0  1.21 0 0  1.22 0 0  1.23 0 0  1.24 0 0  1.25 0 0  1.26 0 0  1.27 0 0  1.28 0 0  1.29 0 0  1.3 0 0  1.31 0 0  1.32 0 0  1.33 0 0  1.34 0 0  1.35 0 0  1.36 0 0  1.37 0 0  1.38 0 0  1.39 0 0  1.4 0 0  1.41 0 0  1.42 0 0  1.43 0 0  1.44 0 0  1.45 0 0  1.46 0 0  1.47 0 0  1.48 0 0  1.49 0 0  1.5 0 0  1.51 0 0  1.52 0 0  1.53 0 0  1.54 0 0  1.55 0 0  1.56 0 0  1.57 0 0  1.58 0 0  1.59 0 0  1.6 0 0  1.61 0 0  1.62 0 0  1.63 0 0  1.64 0 0  1.65 0 0  1.66 0 0  1.67 0 0  1.68 0 0  1.69 0 0  1.7 0 0  1.71 0 0  1.72 0 0  1.73 0 0  1.74 0 0  1.75 0 0  1.76 0 0  1.77 0 0  1.78 0 0  1.79 0 0  1.8 0 0  1.81 0 0  1.82 0 0  1.83 0 0  1.84 0 0  1.85 0 0  1.86 0 0  1.87 0 0  1.88 0 0  1.89 0 0  1.9 0 0  1.91 0 0  1.92 0 0  1.93 0 0  1.94 0 0  1.95 0 0  1.96 0 0  1.97 0 0  1.98 0 0  1.99 0 0  2 0 0  2.01 0 0  2.02 0 0  2.03 0 0  2.04 0 0  2.05 0 0  2.06 0 0  2.07 0 0  2.08 0 0  2.09 0 0  2.1 0 0  2.11 0 0  2.12 0 0  2.13 0 0  2.14 0 0  2.15 0 0  2.16 0 0  2.17 0 0  2.18 0 0  2.19 0 0  2.2 0 0  2.21 0 0  2.22 0 0  2.23 0 0  2.24 0 0  2.25 0 0  2.26 0 0  2.27 0 0  2.28 0 0  2.29 0 0  2.3 0 0  2.31 0 0  2.32 0 0  2.33 0 0  2.34 0 0  2.35 0 0  2.36 0 0  2.37 0 0  2.38 0 0  2.39 0 0  2.4 0 0  2.41 0 0  2.42 0 0  2.43 0 0  2.44 0 0  2.45 0 0  2.46 0 0  2.47 0 0  2.48 0 0  2.49 0 0  2.5 0 0  2.51 0 0  2.52 0 0  2.53 0 0  2.54 0 0  2.55 0 0  2.56 0 0  2.57 0 0  2.58 0 0  2.59 0 0  2.6 0 0  2.61 0 0  2.62 0 0  2.63 0 0  2.64 0 0  2.65 0 0  2.66 0 0  2.67 0 0  2.68 0 0  2.69 0 0  2.7 0 0  2.71 0 0  2.72 0 0  2.73 0 0  2.74 0 0  2.75 0 0  2.76 0 0  2.77 0 0  2.78 0 0  2.79 0 0  2.8 0 0  2.81 0 0  2.82 0 0  2.83 0 0  2.84 0 0  2.85 0 0  2.86 0 0  2.87 0 0  2.88 0 0  2.89 0 0  2.9 0 0  2.91 0 0  2.92 0 0  2.93 0 0  2.94 0 0  2.95 0 0  2.96 0 0  2.97 0 0  2.98 0 0  2.99 0 0  3 0 0  3.01 0 0  3.02 0 0  3.03 0 0  3.04 0 0  3.05 0 0  3.06 0 0  3.07 0 0  3.08 0 0  3.09 0 0  3.1 0 0  3.11 0 0  3.12 0 0  3.13 0 0  3.14 0 0  3.15 0 0  3.16 0 0  3.17 0 0  3.18 0 0  3.19 0 0  3.2 0 0  3.21 0 0  3.22 0 0  3.23 0 0  3.24 0 0  3.25 0 0  3.26 0 0  3.27 0 0  3.28 0 0  3.29 0 0  3.3 0 0  3.31 0 0  3.32 0 0  3.33 0 0  3.34 0 0  3.35 0 0  3.36 0 0  3.37 0 0  3.38 0 0  3.39 0 0  3.4 0 0  3.41 0 0  3.42 0 0  3.43 0 0  3.44 0 0  3.45 0 0  3.46 0 0  3.47 0 0  3.48 0 0  3.49 0 0  3.5 0 0  3.51 0 0  3.52 0 0  3.53 0 0  3.54 0 0  3.55 0 0  3.56 0 0  3.57 0 0  3.58 0 0  3.59 0 0  3.6 0 0  3.61 0 0  3.62 0 0  3.63 0 0  3.64 0 0  3.65 0 0  3.66 0 0  3.67 0 0  3.68 0 0  3.69 0 0  3.7 0 0  3.71 0 0  3.72 0 0  3.73 0 0  3.74 0 0  3.75 0 0  3.76 0 0  3.77 0 0  3.78 0 0  3.79 0 0  3.8 0 0  3.81 0 0  3.82 0 0  3.83 0 0  3.84 0 0  3.85 0 0  3.86 0 0  3.87 0 0  3.88 0 0  3.89 0 0  3.9 0 0  3.91 0 0  3.92 0 0  3.93 0 0  3.94 0 0  3.95 0 0  3.96 0 0  3.97 0 0  3.98 0 0  3.99 0 0  4 0 0  4.01 0 0  4.02 0 0  4.03 0 0  4.04 0 0  4.05 0 0  4.06 0 0  4.07 0 0  4.08 0 0  4.09 0 0  4.1 0 0  4.11 0 0  4.12 0 0  4.13 0 0  4.14 0 0  4.15 0 0  4.16 0 0  4.17 0 0  4.18 0 0  4.19 0 0  4.2 0 0  4.21 0 0  4.22 0 0  4.23 0 0  4.24 0 0  4.25 0 0  4.26 0 0  4.27 0 0  4.28 0 0  4.29 0 0  4.3 0 0  4.31 0 0  4.32 0 0  4.33 0 0  4.34 0 0  4.35 0 0  4.36 0 0  4.37 0 0  4.38 0 0  4.39 0 0  4.4 0 0  4.41 0 0  4.42 0 0  4.43 0 0  4.44 0 0  4.45 0 0  4.46 0 0  4.47 0 0  4.48 0 0  4.49 0 0  4.5 0 0  4.51 -0.06282151815625525 0  4.52 -0.1255810390586241 0  4.53 -0.1882166266370302 0  4.54 -0.2506664671286087 0  4.55 -0.3128689300804606 0  4.56 -0.3747626291714468 0  4.57 -0.4362864827930868 0  4.58 -0.49737977432971 0  4.59 -0.5579822120784577 0  4.6 -0.6180339887498927 0  4.61 -0.6774758404905846 0  4.62 -0.7362491053693565 0  4.63 -0.7942957812695606 0  4.64 -0.8515585831301434 0  4.65 -0.9079809994790955 0  4.66 -0.9635073482034314 0  4.67 -1.018082831500742 0  4.68 -1.071653589957992 0  4.69 -1.124166755704263 0  4.7 -1.175570504584947 0  4.71 -1.225814107305953 0  4.72 -1.274847979497378 0  4.73 -1.322623730647306 0  4.74 -1.369094211857378 0  4.75 -1.414213562373095 0  4.76 -1.457937254842822 0  4.77 -1.500222139260917 0  4.78 -1.541026485551579 0  4.79 -1.580310024751381 0  4.8 -1.618033988749894 0  4.81 -1.654161148549122 0  4.82 -1.688655851004031 0  4.83 -1.721484054007887 0  4.84 -1.752613360087727 0  4.85 -1.782013048376735 0  4.86 -1.80965410493204 0  4.87 -1.835509251367963 0  4.88 -1.859552971776502 0  4.89 -1.88176153790845 0  4.9 -1.902113032590308 0  4.91 -1.920587371353886 0  4.92 -1.937166322257262 0  4.93 -1.951833523877494 0  4.94 -1.964574501457378 0  4.95 -1.975376681190276 0  4.96 -1.984229402628956 0  4.97 -1.99112392920616 0  4.98 -1.996053456856543 0  4.99 -1.999013120731463 0  5 -2 0  5.01 -1.999013120731463 0  5.02 -1.996053456856543 0  5.03 -1.99112392920616 0  5.04 -1.984229402628956 0  5.05 -1.975376681190276 0  5.06 -1.964574501457378 0  5.07 -1.951833523877494 0  5.08 -1.937166322257262 0  5.09 -1.920587371353886 0  5.1 -1.902113032590308 0  5.11 -1.88176153790845 0  5.12 -1.859552971776503 0  5.13 -1.835509251367963 0  5.14 -1.80965410493204 0  5.15 -1.782013048376735 0  5.16 -1.752613360087727 0  5.17 -1.721484054007888 0  5.18 -1.688655851004031 0  5.19 -1.654161148549123 0  5.2 -1.618033988749894 0  5.21 -1.580310024751381 0  5.22 -1.54102648555158 0  5.23 -1.500222139260918 0  5.24 -1.457937254842822 0  5.25 -1.414213562373095 0  5.26 -1.369094211857378 0  5.27 -1.322623730647306 0  5.28 -1.274847979497378 0  5.29 -1.225814107305953 0  5.3 -1.175570504584947 0  5.31 -1.124166755704263 0  5.32 -1.071653589957992 0  5.33 -1.018082831500742 0  5.34 -0.9635073482034312 0  5.35 -0.9079809994790962 0  5.36 -0.8515585831301434 0  5.37 -0.7942957812695605 0  5.38 -0.7362491053693571 0  5.39 -0.6774758404905852 0  5.4 -0.6180339887498926 0  5.41 -0.5579822120784582 0  5.42 -0.4973797743297105 0  5.43 -0.4362864827930872 0  5.44 -0.3747626291714474 0  5.45 -0.3128689300804611 0  5.46 -0.2506664671286091 0  5.47 -0.1882166266370305 0  5.48 -0.1255810390586245 0  5.49 -0.06282151815625558 0  5.5 -2.449293598294706e-16 0  5.51 0 0  5.52 0 0  5.53 0 0  5.54 0 0  5.55 0 0  5.56 0 0  5.57 0 0  5.58 0 0  5.59 0 0  5.6 0 0  5.61 0 0  5.62 0 0  5.63 0 0  5.64 0 0  5.65 0 0  5.66 0 0  5.67 0 0  5.68 0 0  5.69 0 0  5.7 0 0  5.71 0 0  5.72 0 0  5.73 0 0  5.74 0 0  5.75 0 0  5.76 0 0  5.77 0 0  5.78 0 0  5.79 0 0  5.8 0 0  5.81 0 0  5.82 0 0  5.83 0 0  5.84 0 0  5.85 0 0  5.86 0 0  5.87 0 0  5.88 0 0  5.89 0 0  5.9 0 0  5.91 0 0  5.92 0 0  5.93 0 0  5.94 0 0  5.95 0 0  5.96 0 0  5.97 0 0  5.98 0 0  5.99 0 0  6 0 0  6.01 0 0  6.02 0 0  6.03 0 0  6.04 0 0  6.05 0 0  6.06 0 0  6.07 0 0  6.08 0 0  6.09 0 0  6.1 0 0  6.11 0 0  6.12 0 0  6.13 0 0  6.14 0 0  6.15 0 0  6.16 0 0  6.17 0 0  6.18 0 0  6.19 0 0  6.2 0 0  6.21 0 0  6.22 0 0  6.23 0 0  6.24 0 0  6.25 0 0  6.26 0 0  6.27 0 0  6.28 0 0  6.29 0 0  6.3 0 0  6.31 0 0  6.32 0 0  6.33 0 0  6.34 0 0  6.35 0 0  6.36 0 0  6.37 0 0  6.38 0 0  6.39 0 0  6.4 0 0  6.41 0 0  6.42 0 0  6.43 0 0  6.44 0 0  6.45 0 0  6.46 0 0  6.47 0 0  6.48 0 0  6.49 0 0  6.5 0 0  6.51 0 0  6.52 0 0  6.53 0 0  6.54 0 0  6.55 0 0  6.56 0 0  6.57 0 0  6.58 0 0  6.59 0 0  6.6 0 0  6.61 0 0  6.62 0 0  6.63 0 0  6.64 0 0  6.65 0 0  6.66 0 0  6.67 0 0  6.68 0 0  6.69 0 0  6.7 0 0  6.71 0 0  6.72 0 0  6.73 0 0  6.74 0 0  6.75 0 0  6.76 0 0  6.77 0 0  6.78 0 0  6.79 0 0  6.8 0 0  6.81 0 0  6.82 0 0  6.83 0 0  6.84 0 0  6.85 0 0  6.86 0 0  6.87 0 0  6.88 0 0  6.89 0 0  6.9 0 0  6.91 0 0  6.92 0 0  6.93 0 0  6.94 0 0  6.95 0 0  6.96 0 0  6.97 0 0  6.98 0 0  6.99 0 0  7 0 0  7.01 0 0  7.02 0 0  7.03 0 0  7.04 0 0  7.05 0 0  7.06 0 0  7.07 0 0  7.08 0 0  7.09 0 0  7.1 0 0  7.11 0 0  7.12 0 0  7.13 0 0  7.14 0 0  7.15 0 0  7.16 0 0  7.17 0 0  7.18 0 0  7.19 0 0  7.2 0 0  7.21 0 0  7.22 0 0  7.23 0 0  7.24 0 0  7.25 0 0  7.26 0 0  7.27 0 0  7.28 0 0  7.29 0 0  7.3 0 0  7.31 0 0  7.32 0 0  7.33 0 0  7.34 0 0  7.35 0 0  7.36 0 0  7.37 0 0  7.38 0 0  7.39 0 0  7.4 0 0  7.41 0 0  7.42 0 0  7.43 0 0  7.44 0 0  7.45 0 0  7.46 0 0  7.47 0 0  7.48 0 0  7.49 0 0  7.5 0 0  7.51 0 0  7.52 0 0  7.53 0 0  7.54 0 0  7.55 0 0  7.56 0 0  7.57 0 0  7.58 0 0  7.59 0 0  7.6 0 0  7.61 0 0  7.62 0 0  7.63 0 0  7.64 0 0  7.65 0 0  7.66 0 0  7.67 0 0  7.68 0 0  7.69 0 0  7.7 0 0  7.71 0 0  7.72 0 0  7.73 0 0  7.74 0 0  7.75 0 0  7.76 0 0  7.77 0 0  7.78 0 0  7.79 0 0  7.8 0 0  7.81 0 0  7.82 0 0  7.83 0 0  7.84 0 0  7.85 0 0  7.86 0 0  7.87 0 0  7.88 0 0  7.89 0 0  7.9 0 0  7.91 0 0  7.92 0 0  7.93 0 0  7.94 0 0  7.95 0 0  7.96 0 0  7.97 0 0  7.98 0 0  7.99 0 0  8 0 0  8.01 0 0  8.02 0 0  8.029999999999999 0 0  8.039999999999999 0 0  8.0500000
[...]
<PointData  Scalars="f_4432"> 
<DataArray  type="Float64"  Name="f_4432"  format="ascii">1.0000000000000000e+00  1.0000000000000000e+00  9.9811675026291302e-01  9.9687703375124392e-01  9.9587057892136943e-01  9.9503058834336855e-01  9.9435779045043426e-01  9.9375313115231423e-01  9.9320731354712144e-01  9.9271741844259176e-01  9.9228332010279230e-01  9.9187556651953179e-01  9.9150042016678686e-01  9.9114432900526284e-01  9.9080766751030769e-01  9.9049319091262800e-01  9.9020072989323271e-01  9.8991624001623446e-01  9.8963881125171060e-01  9.8937214152610098e-01  9.8911605412971593e-01  9.8886769358989823e-01  9.8862772095116447e-01  9.8840087877116078e-01  9.8818711397152281e-01  9.8797520713545617e-01  9.8777340051308948e-01  9.8758159801930601e-01  9.8739289537767161e-01  9.8720713541945715e-01  9.8702828773972873e-01  9.8685624332100164e-01  9.8668671501514493e-01  9.8651990853870353e-01  9.8635951134162148e-01  9.8620541963877006e-01  9.8604805178503563e-01  9.8589756779246995e-01  9.8575064499313336e-01  9.8560851179681275e-01  9.8546849388368774e-01  9.8532986396260136e-01  9.8519248793221081e-01  9.8505275111650337e-01  9.8491024779298697e-01  9.8476938404218028e-01  9.8463003770895319e-01  9.8449180267211112e-01  9.8435748539759971e-01  9.8422615745781528e-01  9.8409842692388394e-01  9.8397601869208429e-01  9.8385887356013491e-01  9.8374132702901351e-01  9.8362745838613430e-01  9.8351470042085531e-01  9.8340510432840289e-01  9.8329860340872355e-01  9.8319148926525735e-01  9.8308399823548531e-01  9.8297950245385879e-01  9.8287791905440003e-01  9.8277692958539942e-01  9.8267618543009039e-01  9.8257703422739462e-01  9.8247940769961783e-01  9.8237874407792813e-01  9.8227928747313276e-01  9.8218094704888603e-01  9.8208182813037748e-01  9.8198176392572001e-01  9.8188285003381859e-01  9.8178501041243371e-01  9.8168663253845678e-01  9.8158962814134809e-01  9.8149176913435809e-01  9.8139294541014122e-01  9.8129513896369724e-01  9.8119662065841640e-01  9.8110012893264797e-01  9.8100558490883971e-01  9.8091068065104392e-01  9.8081718138046203e-01  9.8072225500243460e-01  9.8062886293730012e-01  9.8053693197400271e-01  9.8044642533777648e-01  9.8035766368951349e-01  9.8027223882161463e-01  9.8018856443625046e-01  9.8010736943536014e-01  9.8002859201812609e-01  9.7994998462789773e-01  9.7987296843640159e-01  9.7979509126282027e-01  9.7971901936714911e-01  9.7964469696589762e-01  9.7957053555959406e-01  9.7949652495779305e-01  9.7942396452928093e-01  9.7935280066881869e-01  9.7928061286197987e-01  9.7920968035192935e-01  9.7913836653684894e-01  9.7906826488817533e-01  9.7899932814742086e-01  9.7892950311672389e-01  9.7885889923792146e-01  9.7878957984228876e-01  9.7872149163545386e-01  9.7865243810976865e-01  9.7858462270901392e-01  9.7851646058115227e-01  9.7844887589013718e-01  9.7838181662352153e-01  9.7831369169987270e-01  9.7824627315347190e-01  9.7817950178031876e-01  9.7811207614607598e-01  9.7804419184622349e-01  9.7797799797204843e-01  9.7791216333535536e-01  9.7784621690443974e-01  9.7778008928316973e-01  9.7771300711550224e-01  9.7764577433821909e-01  9.7757708224897566e-01  9.7750800797160420e-01  9.7743751262929013e-01  9.7736851215941556e-01  9.7729993387573655e-01  9.7723356066742417e-01  9.7716934012582646e-01  9.7710531726500083e-01  9.7704256442869952e-01  9.7697850844260070e-01  9.7691481191328122e-01  9.7685010392817007e-01  9.7678523412723939e-01  9.7672013903565880e-01  9.7665420026663130e-01  9.7658865152118124e-01  9.7652288661349351e-01  9.7645727136887173e-01  9.7639368751107491e-01  9.7633210430851802e-01  9.7627000016048338e-01  9.7620966116458185e-01  9.7614986883963761e-01  9.7609164081307875e-01  9.7603493134076258e-01  9.7597824575664294e-01  9.7592134688747834e-01  9.7586518465541483e-01  9.7580971863990607e-01  9.7575353900951645e-01  9.7569789013809283e-01  9.7564104594099488e-01  9.7558478061576581e-01  9.7552905057495176e-01  9.7547273602492579e-01  9.7541582015750017e-01  9.7535919694523454e-01  9.7530282207951480e-01  9.7524538644139092e-01  9.7518855982178898e-01  9.7513143204352626e-01  9.7507514142887464e-01  9.7501963637276701e-01  9.7496452523127897e-01  9.7490987877817770e-01  9.7485585536214603e-01  9.7480240161194731e-01  9.7474843321599269e-01  9.7469572692209228e-01  9.7464424701389729e-01  9.7459274662448281e-01  9.7454128259690775e-01  9.7449116581261275e-01  9.7444236211963298e-01  9.7439309217288694e-01  9.7434510537701702e-01  9.7429735694499076e-01  9.7425004745187671e-01  9.7420313271806414e-01  9.7415456434745995e-01  9.7410655817740854e-01  9.7405907807531078e-01  9.7401139752121424e-01  9.7396447198846714e-01  9.7391705939253104e-01  9.7386923746331100e-01  9.7382167147882637e-01  9.7377431365614642e-01  9.7372551521056971e-01  9.7367710815751030e-01  9.7362905507442965e-01  9.7358065327651000e-01  9.7353300746356830e-01  9.7348470173019686e-01  9.7343741945515982e-01  9.7339112612752654e-01  9.7334394656352929e-01  9.7329570835325474e-01  9.7324674316688498e-01  9.7319699605648080e-01  9.7314522822695071e-01  9.7309393220147533e-01  9.7304306867339685e-01  9.7299211442613620e-01  9.7294217405954198e-01  9.7289222169606948e-01  9.7284230600916233e-01  9.7279310132743879e-01  9.7274363662165608e-01  9.7269473669926820e-01  9.7264635987125525e-01  9.7259821336954988e-01  9.7255127396078145e-01  9.7250521845726534e-01  9.7246028629181280e-01  9.7241698437243329e-01  9.7237452273396385e-01  9.7233249773356445e-01  9.7229086744132864e-01  9.7224812142281392e-01  9.7220510317417896e-01  9.7216177286864469e-01  9.7211745510351111e-01  9.7207251766968239e-01  9.7202873338197571e-01  9.7198606792484499e-01  9.7194238206445294e-01  9.7189990199740750e-01  9.7185860679663294e-01  9.7181669609033661e-01  9.7177538647609352e-01  9.7173378369059238e-01  9.7169244445339686e-01  9.7165133145768046e-01  9.7160973531343453e-01  9.7156770173858342e-01  9.7152612999726240e-01  9.7148498276107176e-01  9.7144232377152950e-01  9.7140017926344346e-01  9.7135851878498303e-01  9.7131667305672309e-01  9.7127477480953173e-01  9.7123387447801490e-01  9.7119320341807047e-01  9.7115329641386516e-01  9.7111412336039027e-01  9.7107440225865316e-01  9.7103393612228683e-01  9.7099225454484361e-01  9.7094930640029131e-01  9.7090412225384526e-01  9.7085926422430324e-01  9.7081469702940870e-01  9.7077022285900838e-01  9.7072682486832251e-01  9.7068335515918180e-01  9.7063972498237661e-01  9.7059631567953253e-01  9.7055309342551010e-01  9.7050897096230815e-01  9.7046511211806696e-01  9.7042147983863447e-01  9.7037787613953552e-01  9.7033451499883439e-01  9.7029207952076324e-01  9.7025054038223424e-01  9.7020841667746682e-01  9.7016712831071994e-01  9.7012665402541465e-01  9.7008565999111795e-01  9.7004595590168941e-01  9.7000752486462039e-01  9.6996802438280938e-01  9.6992968713572469e-01  9.6989248536076611e-01  9.6985507497215562e-01  9.6981725559013232e-01  9.6977970262783020e-01  9.6974238697176862e-01  9.6970391915202847e-01  9.6966516349494214e-01  9.6962607731069639e-01  9.6958649871182689e-01  9.6954706185105799e-01  9.6950727674204795e-01  9.6946739708836149e-01  9.6942854630228903e-01  9.6939069418796453e-01  9.6935194161037586e-01  9.6931469458174668e-01  9.6927893760791539e-01  9.6924416500645427e-01  9.6921045720391397e-01  9.6917813753352045e-01  9.6914661960108284e-01  9.6911601535977865e-01  9.6908630476227009e-01  9.6905621940055009e-01  9.6902553730823915e-01  9.6899376771405787e-01  9.6896087047025115e-01  9.6892604091555146e-01  9.6889086324856233e-01  9.6885530332142278e-01  9.6881911894315997e-01  9.6878307931479712e-01  9.6874648822344211e-01  9.6870931829327811e-01  9.6867196973729186e-01  9.6863440922320232e-01  9.6859589456684569e-01  9.6855740369594034e-01  9.6851890203015201e-01  9.6848031666608403e-01  9.6844185596634080e-01  9.6840413869260167e-01  9.6836713796377361e-01  9.6832957033464850e-01  9.6829266976617057e-01  9.6825558501444253e-01  9.6821928588884421e-01  9.6818374979485167e-01  9.6814802104108544e-01  9.6811220254184105e-01  9.6807731656533735e-01  9.6804333655252484e-01  9.6800830276109662e-01  9.6797393844016366e-01  9.6793955692261735e-01  9.6790502064180772e-01  9.6787029220631893e-01  9.6783453775137540e-01  9.6779881685165436e-01  9.6776309794626003e-01  9.6772680067515915e-01  9.6769011508332869e-01  9.6765404537027422e-01  9.6761855850686351e-01  9.6758250494299225e-01  9.6754780892812509e-01  9.6751380512332485e-01  9.6748053361319430e-01  9.6744796477395301e-01  9.6741499065480951e-01  9.6738298162678549e-01  9.6735191568417755e-01  9.6732054255027144e-01  9.6728969786655239e-01  9.6725936267374324e-01  9.6722835323652012e-01  9.6719750371493551e-01  9.6716679236920156e-01  9.6713535994299404e-01  9.6710408468771414e-01  9.6707294004308564e-01  9.6704139567484126e-01  9.6700945092782298e-01  9.6697764233979211e-01  9.6694538590948931e-01  9.6691329091267153e-01  9.6688132691785644e-01  9.6684863333247173e-01  9.6681573248796326e-01  9.6678193216740305e-01  9.6674798210908852e-01  9.6671384921024084e-01  9.6667984668503415e-01  9.6664611095816344e-01  9.6661337822720694e-01  9.6658163121225171e-01  9.6654971943741608e-01  9.6651869541067614e-01  9.6648807192423836e-01  9.6645821341360849e-01  9.6642909469822402e-01  9.6640003246353345e-01  9.6637093259391382e-01  9.6634154077814327e-01  9.6631182483987699e-01  9.6628095475017139e-01  9.6625054933168153e-01  9.6621993841999088e-01  9.6618987521056865e-01  9.6616033939591228e-01  9.6613057859199525e-01  9.6610061270905467e-01  9.6607089216866660e-01  9.6604138934560435e-01  9.6601178531673737e-01  9.6598251227126475e-01  9.6595331388978467e-01  9.6592424383403441e-01  9.6589590369008582e-01  9.6586827204376269e-01  9.6584051449379493e-01  9.6581361609973293e-01  9.6578756036938951e-01  9.6576130112070357e-01  9.6573562113159472e-01  9.6571050505379186e-01  9.6568547022509588e-01  9.6566062664765118e-01  9.6563685599108340e-01  9.6561371134606044e-01  9.6559140730950188e-01  9.6556992582458634e-01  9.6554853843678334e-01  9.6552819778681886e-01  9.6550888984673300e-01  9.6548973931841764e-01  9.6547176330524287e-01  9.6545495859018182e-01  9.6543901769311979e-01  9.6542400619545077e-01  9.6541021765239687e-01  9.6539764505317227e-01  9.6538609748425486e-01  9.6537557548860653e-01  9.6536652366069409e-01  9.6535894566638880e-01  9.6535323488065194e-01  9.6534963981648414e-01  9.6534836886048159e-01  9.6534944223517516e-01  9.6535181930914893e-01  9.6535650858133837e-01  9.6536353944047593e-01  9.6537332207639404e-01  9.6538588878922893e-01  9.6540118597995395e-01  9.6541952105934981e-01  9.6544018536021015e-01  9.6546335242905523e-01  9.6548718771213282e-01  9.6551172003892283e-01  9.6553366671322627e-01  9.6555243385685652e-01  9.6556223535449615e-01  9.6556267928823147e-01  9.6554116953982649e-01  9.6548531445859498e-01  9.6533256550511481e-01  9.6508134870059004e-01  9.6465816895475665e-01  9.6375014205733045e-01  9.4983351058927867e-01  9.3289676614045902e-01  9.1367860933573408e-01  8.9399901480750188e-01  8.7397088501851494e-01  8.5538181090083176e-01  8.3776063408976031e-01  8.2103178608666505e-01  8.0589159412257449e-01  7.9167850632535675e-01  7.7813547552023588e-01  7.6548095860421694e-01  7.5332274182361947e-01  7.4175434018875530e-01  7.3065594360690722e-01  7.2000529879698993e-01  7.0970870779076500e-01  6.9984982691242581e-01  6.9034992221677238e-01  6.8125816166282005e-01  6.7259016696799190e-01  6.6439810676170941e-01  6.5659194824086209e-01  6.4923335183337827e-01  6.4228113544501420e-01  6.3580022383089563e-01  6.2971198713939713e-01  6.2402217982123753e-01  6.1873277746047661e-01  6.1389627079434739e-01  6.0943294724063779e-01  6.0528963541699521e-01  6.0153865309506682e-01  5.9812534444531762e-01  5.9508875172565778e-01  5.9234647440399946e-01  5.8992028870194169e-01  5.8776347381669769e-01  5.8590997930187372e-01  5.8428445307017374e-01  5.8292102038246330e-01  5.8174670865593592e-01  5.8076258023508820e-01  5.7998206244571360e-01  5.7938571482082046e-01  5.7891008230954022e-01  5.7857024476259866e-01  5.7834704933446224e-01  5.7822444688763108e-01  5.7818055556683035e-01  5.7822466802441530e-01  5.7835660012360335e-01  5.7857183169592941e-01  5.7890626797196032e-01  5.7936858292623461e-01  5.7998332824921617e-01  5.8077015433152446e-01  5.8175449979488203e-01  5.8292946321351757e-01  5.8429452720479569e-01  5.8592295427336816e-01  5.8778049363284413e-01  5.8994280687688128e-01  5.9237625854723897e-01  5.9512809436429692e-01  5.9817694351951223e-01  6.0160579622265797e-01  6.0537433754975001e-01  6.0951390970006813e-01  6.1401309183943509e-01  6.1895698101579188e-01  6.2428786829693306e-01  6.3008185608714684e-01  6.3627033253348053e-01  6.4290749803901492e-01  6.5006894944929972e-01  6.5768936938188693e-01  6.6584480869015494e-01  6.7449801849693103e-01  6.8374999746126541e-01  6.9356587500068723e-01  7.0393953856900771e-01  7.1486107318145875e-01  7.2635001094834584e-01  7.3832450524801430e-01  7.5095141871436888e-01  7.6408331264391127e-01  7.7750245196651013e-01  7.9122413664972957e-01  8.0493066346001552e-01  8.1873112904440115e-01  8.3219531497802124e-01  8.4555147825175259e-01  8.5817230203020234e-01  8.7009642580093660e-01  8.8155492014424930e-01  8.9235222046742524e-01  9.0300801001469877e-01  9.1423620163495478e-01  9.2855932031023136e-01  9.3040382139155686e-01  9.3180375265334237e-01  9.3274935862605357e-01  9.3354456951269194e-01  9.3419277094686337e-01  9.3479482204055242e-01  9.3532263080446276e-01  9.3577563181976209e-01  9.3620820176347752e-01  9.3659997527173133e-01  9.3695089419144906e-01  9.3728008736760227e-01  9.3758873956407940e-01  9.3788005341736702e-01  9.3815416287970432e-01  9.3841802692262744e-01  9.3866728643252040e-01  9.3890795142059313e-01  9.3913990924580104e-01  9.3936273628234435e-01  9.3957658047651738e-01  9.3978637856298719e-01  9.3998824687061067e-01  9.4018454653262462e-01  9.4037063946881339e-01  9.4055811654650590e-01  9.4073520284232059e-01  9.4090198898191313e-01  9.4106496704564269e-01  9.4122433513146009e-01  9.4137715974279434e-01  9.4152350530587625e-01  9.4166797686454307e-01  9.4181048105601983e-01  9.4194840684894876e-01  9.4208184588236299e-01  9.4221376178587690e-01  9.4234397013616400e-01  9.4246979629868166e-01  9.4259132883457586e-01  9.4271556233506160e-01  9.4283545279860870e-01  9.4295105433340232e-01  9.4306448842279700e-01  9.4317545797772784e-01  9.4328193327379073e-01  9.4338397072070568e-01  9.4348383834842087e-01  9.4357971197593438e-01  9.4367577599461927e-01  9.4377225541976573e-01  9.4386741253124051e-01  9.4396133411096972e-01  9.4405758842372078e-01  9.4415035866641972e-01  9.4424164432689772e-01  9.4432912901791755e-01  9.4441284753992394e-01  9.4449510680113424e-01  9.4457591615499636e-01  9.4465447946918379e-01  9.4473083727094875e-01  9.4480773761202419e-01  9.4488253470129646e-01  9.4495527583504024e-01  9.4502662899280820e-01  9.4509625658618723e-01  9.4516324402796659e-01  9.4522762636377400e-01  9.4529225611232914e-01  9.4535465126777962e-01  9.4541483152753369e-01  9.4547510015248648e-01  9.4553236734767288e-01  9.4558664372267653e-01  9.4564185092251274e-01  9.4569428036935921e-01  9.4574395970959790e-01  9.4579302260260645e-01  9.4584165125948505e-01  9.4588894812910207e-01  9.4593493908702675e-01  9.4598151201048908e-01  9.4602748351550792e-01  9.4607289859903743e-01  9.4611806991388092e-01  9.4616224174524566e-01  9.4620626221754234e-01  9.4624998121890680e-01  9.4629240637707923e-01  9.4633357031541332e-01  9.4637552087204335e-01  9.4641596392279270e-01  9.4645491759940026e-01  9.4649300957476645e-01  9.4653014199831786e-01  9.4656575035772195e-01  9.4659985348802211e-01  9.4663327163222977e-01  9.4666539951611794e-01  9.4669768773958385e-01  9.4673022937044926e-01  9.4676248171002353e-01  9.4679447537933326e-01  9.4682741451533370e-01  9.4685946385968844e-01  9.4689132443467183e-01  9.4692218337386524e-01  9.4695205666392623e-01  9.4698163346450770e-01  9.4701088715457571e-01  9.4703947182247628e-01  9.4706740379689325e-01  9.4709558947126438e-01  9.4712303026548694e-01  9.4714974389454643e-01  9.4717586267862353e-01  9.4720124458301003e-01  9.4722560995316996e-01  9.4724897102795247e-01  9.4727242821851887e-01  9.4729516639727007e-01  9.4731769240346009e-01  9.4733950277526457e-01  9.4736060956140222e-01  9.4738154159115706e-01  9.4740222788631845e-01  9.4742202417170485e-01  9.4744094337662976e-01  9.4746008117311964e-01  9.4747853386841052e-01  9.4749630935275031e-01  9.4751424460644207e-01  9.4753180434773654e-01  9.4754935150349262e-01  9.4756657317252191e-01  9.4758348343659504e-01  9.4760028740862423e-01  9.4761693825723259e-01  9.4763315341986731e-01  9.4764915832114316e-01  9.4766483302597759e-01  9.4768019162680373e-01  9.4769525669306109e-01  9.4770998377300797e-01  9.4772416089715616e-01  9.4773779862932972e-01  9.4775112049498134e-01  9.4776390894818408e-01  9.4777675886457091e-01  9.4778922402599175e-01  9.4780156902450641e-01  9.4781356717359433e-01  9.4782522744727749e-01  9.4783718027390540e-01  9.4784868394447963e-01  9.4785999065597859e-01  9.4787088754897475e-01  9.4788137961596730e-01  9.4789176995828617e-01  9.4790204535742351e-01  9.4791195411166851e-01  9.4792150298395095e-01  9.4793127012243339e-01  9.4794068677132592e-01  9.4794975696590056e-01  9.4795864852587708e-01  9.4796733718431103e-01  9.4797566871777283e-01  9.4798381566547696e-01  9.4799167678361151e-01  9.4799925597319867e-01  9.4800699522923160e-01  9.4801453839747496e-01  9.4802189152612570e-01  9.4802910849666455e-01  9.4803601452170216e-01  9.4804288891853050e-01  9.4804937736607597e-01  9.4805557830655307e-01  9.4806133663368719e-01  9.4806665510531019e-01  9.4807170535359619e-01  9.4807649036685393e-01  9.4808101023314595e-01  9.4808532450988037e-01  9.4808942926908724e-01  9.4809332743381947e-01  9.4809704448164778e-01  9.4810057294164696e-01  9.4810394479566196e-01  9.4810716232132519e-01  9.4811033006195000e-01  9.4811340122969112e-01  9.4811650703942463e-01  9.4811957893572785e-01  9.4812261905843609e-01  9.4812569133171776e-01  9.4812878609845119e-01  9.4813181680243919e-01  9.4813478540409446e-01  9.4813779003349208e-01  9.4814069798014178e-01  9.4814351014334308e-01  9.4814631471357080e-01  9.4814892525860173e-01  9.4815138373970298e-01  9.4815352681204823e-01  9.4815535418570129e-01  9.4815695101676112e-01  9.4815829841385335e-01  9.4815931880705562e-01  9.4816000956944013e-01  9.4816047886299715e-01  9.4816068448374524e-01  9.4816062493405850e-01  9.4816033550173140e-01  9.4815979273538076e-01  9.4815911379526219e-01  9.4815827965309885e-01  9.4815727648657200e-01  9.4815616248415835e-01  9.4815493566676989e-01  9.4815363364654004e-01  9.4815227860904849e-01  9.4815087394782815e-01  9.4814942763917631e-01  9.4814797603229706e-01  9.4814651761665047e-01  9.4814502060265737e-01  9.4814350989099461e-01  9.4814195202883200e-01  9.4814037511153415e-01  9.4813877750275521e-01  9.4813709396063295e-01  9.4813531220816338e-01  9.4813346064768544e-01  9.4813153688814455e-01  9.4812950234345295e-01  9.4812735765169520e-01  9.4812511364835561e-01  9.4812276732223177e-01  9.4812030086848531e-01  9.4811770894622782e-01  9.4811500136362281e-01  9.4811217454570329e-01  9.4810919097425050e-01  9.4810613369297014e-01  9.4810299906031181e-01  9.4809970182494541e-01  9.4809638876769931e-01  9.4809305684996115e-01  9.4808965128712475e-01  9.4808624246846906e-01  9.4808265800006819e-01  9.4807895130284114e-01  9.4807511771619957e-01  9.4807111901601615e-01  9.4806695711984301e-01  9.4806285288874270e-01  9.4805872696263849e-01  9.4805469061635395e-01  9.4805074091601726e-01  9.4804677590830100e-01  9.4804278365944183e-01  9.4803881734489670e-01  9.4803487385679630e-01  9.4803077087593124e-01  9.4802665437292066e-01  9.4802252010858234e-01  9.4801828301569557e-01  9.4801392397782080e-01  9.4800954310952357e-01  9.4800513633701267e-01  9.4800062762666204e-01  9.4799610353390162e-01  9.4799145225066705e-01  9.4798665723145