<?xml version="1.0"?>
<VTKFile type="UnstructuredGrid"  version="0.1"  >
<UnstructuredGrid>
<Piece  NumberOfPoints="4985" NumberOfCells="7768">
<Points>
<DataArray  type="Float64"  NumberOfComponents="3"  format="ascii">0 0.01 0  0 0 0  0.01 0 0  0.02 0 0  0.03 0 0  0.04 0 0  0.05 0 0  0.06 0 0  0.07000000000000001 0 0  0.08 0 0  0.09 0 0  0.1 0 0  0.11 0 0  0.12 0 0  0.13 0 0  0.14 0 0  0.15 0 0  0.16 0 0  0.17 0 0  0.18 0 0  0.19 0 0  0.2 0 0  0.21 0 0  0.22 0 0  0.23 0 0  0.24 0 0  0.25 0 0  0.26 0 0  0.27 0 0  0.28 0 0  0.29 0 0  0.3 0 0  0.31 0 0  0.32 0 0  0.33 0 0  0.34 0 0  0.35 0 0  0.36 0 0  0.37 0 0  0.38 0 0  0.39 0 0  0.4 0 0  0.41 0 0  0.42 0 0  0.43 0 0  0.44 0 0  0.45 0 0  0.46 0 0  0.47 0 0  0.48 0 0  0.49 0 0  0.5 0 0  0.51 0 0  0.52 0 0  0.53 0 0  0.54 0 0  0.55 0 0  0.5600000000000001 0 0  0.57 0 0  0.58 0 0  0.59 0 0  0.6 0 0  0.61 0 0  0.62 0 0  0.63 0 0  0.64 0 0  0.65 0 0  0.66 0 0  0.67 0 0  0.68 0 0  0.6899999999999999 0 0  0.7 0 0  0.71 0 0  0.72 0 0  0.73 0 0  0.74 0 0  0.75 0 0  0.76 0 0  0.77 0 0  0.78 0 0  0.79 0 0  0.8 0 0  0.8100000000000001 0 0  0.82 0 0  0.83 0 0  0.84 0 0  0.85 0 0  0.86 0 0  0.87 0 0  0.88 0 0  0.89 0 0  0.9 0 0  0.91 0 0  0.92 0 0  0.93 0 0  0.9399999999999999 0 0  0.95 0 0  0.96 0 0  0.97 0 0  0.98 0 0  0.99 0 0  1 0 0  1.01 0 0  1.02 0 0  1.03 0 0  1.04 0 0  1.05 0 0  1.06 0 0  1.07 0 0  1.08 0 0  1.09 0 0  1.1 0 0  1.11 0 0  1.12 0 0  1.13 0 0  1.14 0 0  1.15 0 0  1.16 0 0  1.17 0 0  1.18 0 0  1.19 0 0  1.2 0 0  1.21 0 0  1.22 0 0  1.23 0 0  1.24 0 0  1.25 0 0  1.26 0 0  1.27 0 0  1.28 0 0  1.29 0 0  1.3 0 0  1.31 0 0  1.32 0 0  1.33 0 0  1.34 0 0  1.35 0 0  1.36 0 0  1.37 0 0  1.38 0 0  1.39 0 0  1.4 0 0  1.41 0 0  1.42 0 0  1.43 0 0  1.44 0 0  1.45 0 0  1.46 0 0  1.47 0 0  1.48 0 0  1.49 0 0  1.5 0 0  1.51 0 0  1.52 0 0  1.53 0 0  1.54 0 0  1.55 0 0  1.56 0 0  1.57 0 0  1.58 0 0  1.59 0 0  1.6 0 0  1.61 0 0  1.62 0 0  1.63 0 0  1.64 0 0  1.65 0 0  1.66 0 0  1.67 0 0  1.68 0 0  1.69 0 0  1.7 0 0  1.71 0 0  1.72 0 0  1.73 0 0  1.74 0 0  1.75 0 0  1.76 0 0  1.77 0 0  1.78 0 0  1.79 0 0  1.8 0 0  1.81 0 0  1.82 0 0  1.83 0 0  1.84 0 0  1.85 0 0  1.86 0 0  1.87 0 0  1.88 0 0  1.89 0 0  1.9 0 0  1.91 0 0  1.92 0 0  1.93 0 0  1.94 0 0  1.95 0 0  1.96 0 0  1.97 0 0  1.98 0 0  1.99 0 0  2 0 0  2.01 0 0  2.02 0 0  2.03 0 0  2.04 0 0  2.05 0 0  2.06 0 0  2.07 0 0  2.08 0 0  2.09 0 0  2.1 0 0  2.11 0 0  2.12 0 0  2.13 0 0  2.14 0 0  2.15 0 0  2.16 0 0  2.17 0 0  2.18 0 0  2.19 0 0  2.2 0 0  2.21 0 0  2.22 0 0  2.23 0 0  2.24 0 0  2.25 0 0  2.26 0 0  2.27 0 0  2.28 0 0  2.29 0 0  2.3 0 0  2.31 0 0  2.32 0 0  2.33 0 0  2.34 0 0  2.35 0 0  2.36 0 0  2.37 0 0  2.38 0 0  2.39 0 0  2.4 0 0  2.41 0 0  2.42 0 0  2.43 0 0  2.44 0 0  2.45 0 0  2.46 0 0  2.47 0 0  2.48 0 0  2.49 0 0  2.5 0 0  2.51 0 0  2.52 0 0  2.53 0 0  2.54 0 0  2.55 0 0  2.56 0 0  2.57 0 0  2.58 0 0  2.59 0 0  2.6 0 0  2.61 0 0  2.62 0 0  2.63 0 0  2.64 0 0  2.65 0 0  2.66 0 0  2.67 0 0  2.68 0 0  2.69 0 0  2.7 0 0  2.71 0 0  2.72 0 0  2.73 0 0  2.74 0 0  2.75 0 0  2.76 0 0  2.77 0 0  2.78 0 0  2.79 0 0  2.8 0 0  2.81 0 0  2.82 0 0  2.83 0 0  2.84 0 0  2.85 0 0  2.86 0 0  2.87 0 0  2.88 0 0  2.89 0 0  2.9 0 0  2.91 0 0  2.92 0 0  2.93 0 0  2.94 0 0  2.95 0 0  2.96 0 0  2.97 0 0  2.98 0 0  2.99 0 0  3 0 0  3.01 0 0  3.02 0 0  3.03 0 0  3.04 0 0  3.05 0 0  3.06 0 0  3.07 0 0  3.08 0 0  3.09 0 0  3.1 0 0  3.11 0 0  3.12 0 0  3.13 0 0  3.14 0 0  3.15 0 0  3.16 0 0  3.17 0 0  3.18 0 0  3.19 0 0  3.2 0 0  3.21 0 0  3.22 0 0  3.23 0 0  3.24 0 0  3.25 0 0  3.26 0 0  3.27 0 0  3.28 0 0  3.29 0 0  3.3 0 0  3.31 0 0  3.32 0 0  3.33 0 0  3.34 0 0  3.35 0 0  3.36 0 0  3.37 0 0  3.38 0 0  3.39 0 0  3.4 0 0  3.41 0 0  3.42 0 0  3.43 0 0  3.44 0 0  3.45 0 0  3.46 0 0  3.47 0 0  3.48 0 0  3.49 0 0  3.5 0 0  3.51 0 0  3.52 0 0  3.53 0 0  3.54 0 0  3.55 0 0  3.56 0 0  3.57 0 0  3.58 0 0  3.59 0 0  3.6 0 0  3.61 0 0  3.62 0 0  3.63 0 0  3.64 0 0  3.65 0 0  3.66 0 0  3.67 0 0  3.68 0 0  3.69 0 0  3.7 0 0  3.71 0 0  3.72 0 0  3.73 0 0  3.74 0 0  3.75 0 0  3.76 0 0  3.77 0 0  3.78 0 0  3.79 0 0  3.8 0 0  3.81 0 0  3.82 0 0  3.83 0 0  3.84 0 0  3.85 0 0  3.86 0 0  3.87 0 0  3.88 0 0  3.89 0 0  3.9 0 0  3.91 0 0  3.92 0 0  3.93 0 0  3.94 0 0  3.95 0 0  3.96 0 0  3.97 0 0  3.98 0 0  3.99 0 0  4 0 0  4.01 0 0  4.02 0 0  4.03 0 0  4.04 0 0  4.05 0 0  4.06 0 0  4.07 0 0  4.08 0 0  4.09 0 0  4.1 0 0  4.11 0 0  4.12 0 0  4.13 0 0  4.14 0 0  4.15 0 0  4.16 0 0  4.17 0 0  4.18 0 0  4.19 0 0  4.2 0 0  4.21 0 0  4.22 0 0  4.23 0 0  4.24 0 0  4.25 0 0  4.26 0 0  4.27 0 0  4.28 0 0  4.29 0 0  4.3 0 0  4.31 0 0  4.32 0 0  4.33 0 0  4.34 0 0  4.35 0 0  4.36 0 0  4.37 0 0  4.38 0 0  4.39 0 0  4.4 0 0  4.41 0 0  4.42 0 0  4.43 0 0  4.44 0 0  4.45 0 0  4.46 0 0  4.47 0 0  4.48 0 0  4.49 0 0  4.5 0 0  4.51 0 0  4.52 0 0  4.53 0 0  4.54 0 0  4.55 0 0  4.56 0 0  4.57 0 0  4.58 0 0  4.59 0 0  4.6 0 0  4.61 0 0  4.62 0 0  4.63 0 0  4.64 0 0  4.65 0 0  4.66 0 0  4.67 0 0  4.68 0 0  4.69 0 0  4.7 0 0  4.71 0 0  4.72 0 0  4.73 0 0  4.74 0 0  4.75 0 0  4.76 -0.03139525976465602 0  4.77 -0.0626666167821508 0  4.78 -0.09369065729286308 0  4.79 -0.1243449435824275 0  4.8 -0.1545084971874732 0  4.81 -0.1840622763423378 0  4.82 -0.2128896457825371 0  4.83 -0.2408768370508579 0  4.84 -0.2679133974894979 0  4.85 -0.2938926261462357 0  4.86 -0.3187119948743456 0  4.87 -0.3422735529643445 0  4.88 -0.3644843137107056 0  4.89 -0.385256621387894 0  4.9 -0.4045084971874743 0  4.91 -0.4221639627510078 0  4.92 -0.4381533400219317 0  4.93 -0.4524135262330094 0  4.94 -0.4648882429441261 0  4.95 -0.4755282581475769 0  4.96 -0.4842915805643155 0  4.97 -0.4911436253643442 0  4.98 -0.4960573506572391 0  4.99 -0.4990133642141358 0  5 -0.5 0  5.01 -0.4990133642141358 0  5.02 -0.4960573506572391 0  5.03 -0.4911436253643442 0  5.04 -0.4842915805643155 0  5.05 -0.475528258147577 0  5.06 -0.4648882429441262 0  5.07 -0.4524135262330093 0  5.08 -0.4381533400219317 0  5.09 -0.4221639627510078 0  5.1 -0.4045084971874744 0  5.11 -0.3852566213878941 0  5.12 -0.3644843137107056 0  5.13 -0.3422735529643446 0  5.14 -0.3187119948743456 0  5.15 -0.2938926261462357 0  5.16 -0.2679133974894979 0  5.17 -0.2408768370508578 0  5.18 -0.2128896457825372 0  5.19 -0.1840622763423378 0  5.2 -0.1545084971874731 0  5.21 -0.1243449435824276 0  5.22 -0.09369065729286316 0  5.23 -0.06266661678215095 0  5.24 -0.03139525976465612 0  5.25 -6.123233995736766e-17 0  5.26 0 0  5.27 0 0  5.28 0 0  5.29 0 0  5.3 0 0  5.31 0 0  5.32 0 0  5.33 0 0  5.34 0 0  5.35 0 0  5.36 0 0  5.37 0 0  5.38 0 0  5.39 0 0  5.4 0 0  5.41 0 0  5.42 0 0  5.43 0 0  5.44 0 0  5.45 0 0  5.46 0 0  5.47 0 0  5.48 0 0  5.49 0 0  5.5 0 0  5.51 0 0  5.52 0 0  5.53 0 0  5.54 0 0  5.55 0 0  5.56 0 0  5.57 0 0  5.58 0 0  5.59 0 0  5.6 0 0  5.61 0 0  5.62 0 0  5.63 0 0  5.64 0 0  5.65 0 0  5.66 0 0  5.67 0 0  5.68 0 0  5.69 0 0  5.7 0 0  5.71 0 0  5.72 0 0  5.73 0 0  5.74 0 0  5.75 0 0  5.76 0 0  5.77 0 0  5.78 0 0  5.79 0 0  5.8 0 0  5.81 0 0  5.82 0 0  5.83 0 0  5.84 0 0  5.85 0 0  5.86 0 0  5.87 0 0  5.88 0 0  5.89 0 0  5.9 0 0  5.91 0 0  5.92 0 0  5.93 0 0  5.94 0 0  5.95 0 0  5.96 0 0  5.97 0 0  5.98 0 0  5.99 0 0  6 0 0  6.01 0 0  6.02 0 0  6.03 0 0  6.04 0 0  6.05 0 0  6.06 0 0  6.07 0 0  6.08 0 0  6.09 0 0  6.1 0 0  6.11 0 0  6.12 0 0  6.13 0 0  6.14 0 0  6.15 0 0  6.16 0 0  6.17 0 0  6.18 0 0  6.19 0 0  6.2 0 0  6.21 0 0  6.22 0 0  6.23 0 0  6.24 0 0  6.25 0 0  6.26 0 0  6.27 0 0  6.28 0 0  6.29 0 0  6.3 0 0  6.31 0 0  6.32 0 0  6.33 0 0  6.34 0 0  6.35 0 0  6.36 0 0  6.37 0 0  6.38 0 0  6.39 0 0  6.4 0 0  6.41 0 0  6.42 0 0  6.43 0 0  6.44 0 0  6.45 0 0  6.46 0 0  6.47 0 0  6.48 0 0  6.49 0 0  6.5 0 0  6.51 0 0  6.52 0 0  6.53 0 0  6.54 0 0  6.55 0 0  6.56 0 0  6.57 0 0  6.58 0 0  6.59 0 0  6.6 0 0  6.61 0 0  6.62 0 0  6.63 0 0  6.64 0 0  6.65 0 0  6.66 0 0  6.67 0 0  6.68 0 0  6.69 0 0  6.7 0 0  6.71 0 0  6.72 0 0  6.73 0 0  6.74 0 0  6.75 0 0  6.76 0 0  6.77 0 0  6.78 0 0  6.79 0 0  6.8 0 0  6.81 0 0  6.82 0 0  6.83 0 0  6.84 0 0  6.85 0 0  6.86 0 0  6.87 0 0  6.88 0 0  6.89 0 0  6.9 0 0  6.91 0 0  6.92 0 0  6.93 0 0  6.94 0 0  6.95 0 0  6.96 0 0  6.97 0 0  6.98 0 0  6.99 0 0  7 0 0  7.01 0 0  7.02 0 0  7.03 0 0  7.04 0 0  7.05 0 0  7.06 0 0  7.07 0 0  7.08 0 0  7.09 0 0  7.1 0 0  7.11 0 0  7.12 0 0  7.13 0 0  7.14 0 0  7.15 0 0  7.16 0 0  7.17 0 0  7.18 0 0  7.19 0 0  7.2 0 0  7.21 0 0  7.22 0 0  7.23 0 0  7.24 0 0  7.25 0 0  7.26 0 0  7.27 0 0  7.28 0 0  7.29 0 0  7.3 0 0  7.31 0 0  7.32 0 0  7.33 0 0  7.34 0 0  7.35 0 0  7.36 0 0  7.37 0 0  7.38 0 0  7.39 0 0  7.4 0 0  7.41 0 0  7.42 0 0  7.43 0 0  7.44 0 0  7.45 0 0  7.46 0 0  7.47 0 0  7.48 0 0  7.49 0 0  7.5 0 0  7.51 0 0  7.52 0 0  7.53 0 0  7.54 0 0  7.55 0 0  7.56 0 0  7.57 0 0  7.58 0 0  7.59 0 0  7.6 0 0  7.61 0 0  7.62 0 0  7.63 0 0  7.64 0 0  7.65 0 0  7.66 0 0  7.67 0 0  7.68 0 0  7.69 0 0  7.7 0 0  7.71 0 0  7.72 0 0  7.73 0 0  7.74 0 0  7.75 0 0  7.76 0 0  7.77 0 0  7.78 0 0  7.79 0 0  7.8 0 0  7.81 0 0  7.82 0 0  7.83 0 0  7.84 0 0  7.85 0 0  7.86 0 0  7.87 0 0  7.88 0 0  7.89 0 0  7.9 0 0  7.91 0 0  7.92 0 0  7.93 0 0  7.94 0 0  7.95 0 0  7.96 0 0  7.97 0 0  7.98 0 0  7.99 0 0  8 0 0  8.01 0 0  8.02 0 0  8.029999999999999 0 0  8.039999999999999 0 0  8.050000000000001 0 0  8.06 0 0  8.07 0 0  8.08 0 0  8.09 0 0  8.1 0 0  8.109999999999999 0 0  8.119999999999999 0 0  8.130000000000001 0 0  8.140000000000001 0 0  8.15 0 0  8.16 0 0  8.17 0 0  8.18 0 0  8.19 0 0  8.199999999999999 0 0  8.210000000000001 0 0  8.220000000000001 0 0  8.23 0 0  8.24 0 0  8.25 0 0  8.26 0 0  8.27 0 0  8.279999999999999 0 0  8.289999999999999 0 0  8.300000000000001 0 0  8.31 0 0  8.32 0 0  8.33 0 0  8.34 0 0  8.35 0 0  8.359999999999999 0 0  8.369999999999999 0 0  8.380000000000001 0 0  8.390000000000001 0 0  8.4 0 0  8.41 0 0  8.42 0 0  8.43 0 0  8.44 0 0  8.449999999999999 0 0  8.460000000000001 0 0  8.470000000000001 0 0  8.48 0 0  8.49 0 0  8.5 0 0  8.51 0 0  8.52 0 0  8.529999999999999 0 0  8.539999999999999 0 0  8.550000000000001 0 0  8.56 0 0  8.57 0 0  8.58 0 0  8.59 0 0  8.6 0 0  8.
[...]
<PointData  Scalars="f_1824"> 
<DataArray  type="Float64"  Name="f_1824"  format="ascii">1.0000000000000000e+00  1.0000000000000000e+00  8.4498202362607922e-01  7.4912984307615904e-01  6.7734095604940403e-01  6.2252876147717262e-01  5.7953174409212571e-01  5.4366197666998017e-01  5.1262504779242091e-01  4.8709175264904275e-01  4.6438915787664020e-01  4.4459843993922232e-01  4.2651932098120143e-01  4.1059265394054439e-01  3.9595681118999421e-01  3.8334854238060212e-01  3.7145502112705697e-01  3.6050440492571639e-01  3.5016143617073614e-01  3.4101622272154664e-01  3.3215888022637780e-01  3.2400695824880565e-01  3.1629707556782899e-01  3.0947294809370246e-01  3.0294231413026290e-01  2.9666660270208856e-01  2.9105906981242408e-01  2.8559141976205771e-01  2.8047050162081888e-01  2.7557745699370151e-01  2.7115045169062096e-01  2.6676530804414955e-01  2.6261474516601713e-01  2.5862411416809150e-01  2.5500685580488525e-01  2.5140661824931920e-01  2.4785328065507770e-01  2.4460076742717310e-01  2.4140024346569386e-01  2.3844028947812107e-01  2.3551917438416445e-01  2.3285732956642408e-01  2.3017541239286377e-01  2.2759772732796868e-01  2.2504579844678449e-01  2.2268463056503668e-01  2.2028386340781969e-01  2.1802801261702826e-01  2.1577824614135535e-01  2.1361496148259504e-01  2.1152181548661406e-01  2.0960974309207026e-01  2.0770370628374410e-01  2.0581221455949095e-01  2.0404064746923617e-01  2.0228388421747537e-01  2.0064641903785954e-01  1.9898005633263680e-01  1.9737449914472119e-01  1.9577530353642009e-01  1.9429672302150083e-01  1.9278809954070270e-01  1.9134220304175917e-01  1.8990512636815524e-01  1.8856473971849225e-01  1.8720445852505427e-01  1.8587467621963474e-01  1.8463793446743049e-01  1.8336851920853076e-01  1.8211475582532224e-01  1.8087348099033909e-01  1.7971551272474004e-01  1.7853713980195751e-01  1.7742859794848967e-01  1.7629338779026357e-01  1.7519255465173214e-01  1.7410593868965979e-01  1.7307649957000393e-01  1.7203509357118352e-01  1.7106898713395216e-01  1.7008192048610574e-01  1.6912670592216841e-01  1.6815947854829894e-01  1.6720678845819004e-01  1.6630369214231952e-01  1.6536497416514567e-01  1.6446289508317680e-01  1.6356936667915481e-01  1.6272632316247948e-01  1.6187608941027010e-01  1.6108824632433130e-01  1.6028334454421225e-01  1.5950535793034362e-01  1.5871807073367444e-01  1.5794248365945079e-01  1.5720772919652223e-01  1.5644370077315886e-01  1.5569357227099898e-01  1.5494494669738620e-01  1.5424404547775067e-01  1.5352536456312041e-01  1.5280344170668814e-01  1.5211443732289001e-01  1.5141210500108604e-01  1.5074532839228763e-01  1.5005622014088310e-01  1.4936940680166838e-01  1.4868661629941254e-01  1.4804263862786160e-01  1.4737652450345104e-01  1.4670721099865527e-01  1.4607201475572335e-01  1.4542698562969378e-01  1.4481802193100349e-01  1.4419220983043668e-01  1.4357187404086608e-01  1.4298987203944766e-01  1.4238934407693152e-01  1.4178274415580439e-01  1.4118229097443513e-01  1.4061034527357008e-01  1.4003302863002859e-01  1.3949008494907608e-01  1.3892420059080529e-01  1.3838933568251383e-01  1.3782987105326969e-01  1.3728110118808001e-01  1.3672040850785236e-01  1.3616680624393923e-01  1.3564161295827298e-01  1.3510141338396486e-01  1.3459689034929187e-01  1.3407575089162418e-01  1.3357286314657635e-01  1.3306431260356899e-01  1.3255672730267629e-01  1.3206871791234751e-01  1.3157568780782597e-01  1.3110878202760329e-01  1.3062277045696741e-01  1.3015556926212479e-01  1.2967809376188552e-01  1.2920584293999016e-01  1.2873530173965203e-01  1.2828979506123009e-01  1.2783140413575655e-01  1.2737062321568254e-01  1.2692495186585206e-01  1.2647166794756382e-01  1.2604360281690988e-01  1.2559770192574793e-01  1.2516181840003332e-01  1.2472011235684259e-01  1.2430157764916386e-01  1.2386983152277581e-01  1.2344765403389354e-01  1.2301286097647265e-01  1.2258258839701919e-01  1.2217149494983763e-01  1.2174303186645735e-01  1.2131779444638195e-01  1.2089883534057222e-01  1.2050126539398338e-01  1.2009137843430530e-01  1.1968333542215630e-01  1.1929316087766079e-01  1.1888909857108916e-01  1.1850721371564880e-01  1.1810794251250790e-01  1.1771648262373893e-01  1.1732451686436983e-01  1.1695758075934862e-01  1.1657622839380080e-01  1.1619126476088004e-01  1.1582790635922119e-01  1.1545275760178221e-01  1.1508246541326264e-01  1.1471184023387690e-01  1.1436158928929675e-01  1.1399877285262551e-01  1.1363242788675823e-01  1.1327914539038346e-01  1.1292135747347459e-01  1.1258215785330523e-01  1.1222706900713697e-01  1.1186784885709490e-01  1.1152556316724033e-01  1.1116992778816152e-01  1.1082866757502476e-01  1.1047245535677960e-01  1.1012140674348320e-01  1.0977437682993287e-01  1.0944801769818012e-01  1.0910790291347269e-01  1.0876222388195778e-01  1.0843241427297760e-01  1.0808983057923388e-01  1.0775756873311985e-01  1.0741515108248996e-01  1.0707620303030117e-01  1.0675445777247286e-01  1.0641972417335081e-01  1.0609013703956363e-01  1.0576258277536503e-01  1.0545180375674594e-01  1.0512584199025275e-01  1.0479474418028503e-01  1.0447997195530154e-01  1.0415406623498243e-01  1.0384128482995725e-01  1.0351798664874527e-01  1.0319692768516195e-01  1.0287999984843195e-01  1.0257565830721967e-01  1.0226367590073601e-01  1.0196710745671736e-01  1.0165735935519860e-01  1.0135685154698940e-01  1.0104665623024478e-01  1.0073540638442267e-01  1.0042343949643817e-01  1.0012452053432902e-01  9.9818770627224718e-02  9.9531211074716033e-02  9.9230866929857400e-02  9.8924267092787052e-02  9.8630891923589994e-02  9.8325411098397097e-02  9.8019235897137236e-02  9.7714892096525452e-02  9.7426943056082321e-02  9.7126550733919320e-02  9.6823280286740782e-02  9.6537126081734856e-02  9.6244286395673506e-02  9.5950504064257008e-02  9.5667249378395797e-02  9.5380280589245373e-02  9.5107631138434706e-02  9.4822852296022012e-02  9.4541636485462460e-02  9.4259423064504869e-02  9.3992674450920424e-02  9.3714742246102517e-02  9.3434175658336338e-02  9.3166385867224671e-02  9.2888239555332680e-02  9.2611959678688627e-02  9.2331131015921511e-02  9.2065201239751260e-02  9.1788606180813526e-02  9.1525289142572297e-02  9.1250515368421908e-02  9.0979790538371047e-02  9.0710538826703255e-02  9.0454329498493094e-02  9.0184809197705565e-02  8.9910430141355233e-02  8.9649099783221511e-02  8.9378019497949837e-02  8.9117658255360860e-02  8.8848283511733198e-02  8.8580920273751029e-02  8.8317233340120968e-02  8.8065936448861834e-02  8.7805820451201236e-02  8.7546562083983065e-02  8.7298715082993084e-02  8.7039642057849961e-02  8.6780200579170796e-02  8.6521754045876725e-02  8.6276822005485768e-02  8.6023035554000857e-02  8.5766969196800935e-02  8.5521907929536109e-02  8.5268633213034878e-02  8.5016032151115598e-02  8.4773579674198532e-02  8.4521309616390608e-02  8.4270691319750735e-02  8.4033997777194974e-02  8.3787927943302504e-02  8.3541264016222319e-02  8.3296271027402585e-02  8.3062606446323725e-02  8.2820144778148419e-02  8.2582145334831103e-02  8.2355596679393878e-02  8.2116235514825317e-02  8.1882565962444365e-02  8.1640951969136552e-02  8.1401860248289201e-02  8.1166683939264045e-02  8.0944033006311006e-02  8.0711662757362107e-02  8.0477023786422186e-02  8.0253155753946981e-02  8.0020719761078121e-02  7.9789930998331787e-02  7.9555374209336588e-02  7.9332942881422924e-02  7.9101253416851008e-02  7.8880258079313106e-02  7.8649197192031589e-02  7.8421165612437144e-02  7.8194026991552701e-02  7.7977586798226348e-02  7.7749582058114303e-02  7.7517254376731362e-02  7.7295693345228816e-02  7.7065569519710386e-02  7.6844313182014470e-02  7.6615154488285930e-02  7.6387587805336180e-02  7.6163070467771696e-02  7.5949084054268520e-02  7.5727568341865684e-02  7.5506774631318607e-02  7.5295687121708435e-02  7.5075025920142521e-02  7.4853873491146292e-02  7.4634095343367651e-02  7.4425346304044376e-02  7.4207546301431337e-02  7.3988359932127837e-02  7.3778669567823668e-02  7.3561906771551111e-02  7.3354831804656670e-02  7.3139387126084282e-02  7.2924555673793967e-02  7.2711515477983574e-02  7.2507943593765667e-02  7.2296602585318726e-02  7.2085387986250513e-02  7.1882016529664708e-02  7.1670693263145777e-02  7.1469899977347290e-02  7.1258870500186880e-02  7.1051110454340732e-02  7.0842128157167825e-02  7.0645040611397605e-02  7.0438714583776416e-02  7.0243127260560104e-02  7.0037608883052715e-02  6.9835244938642682e-02  6.9630969553516345e-02  6.9438896823510898e-02  6.9239132814730972e-02  6.9048488562795454e-02  6.8852309077479773e-02  6.8655793354355926e-02  6.8467946620758141e-02  6.8272844091463863e-02  6.8076717908491124e-02  6.7880754311286040e-02  6.7694783444430362e-02  6.7502323211510756e-02  6.7307836036557003e-02  6.7121184232386374e-02  6.6928032116527883e-02  6.6734396030369708e-02  6.6545376778660903e-02  6.6351430089492097e-02  6.6166399014010280e-02  6.5971619859324329e-02  6.5779686563553763e-02  6.5583656249689704e-02  6.5396228400312242e-02  6.5200991180103335e-02  6.5009007504803845e-02  6.4827114673842057e-02  6.4636023691650640e-02  6.4449169655110855e-02  6.4259177006123325e-02  6.4071466166053206e-02  6.3891984125888576e-02  6.3705893475500749e-02  6.3529630682514979e-02  6.3344925075445868e-02  6.3162955272699883e-02  6.2979550767603532e-02  6.2806392871637015e-02  6.2625442408666049e-02  6.2443374382702456e-02  6.2271402566116976e-02  6.2092601224152492e-02  6.1912001297452980e-02  6.1739729551179137e-02  6.1562756348734801e-02  6.1392425598020030e-02  6.1217862815402785e-02  6.1053598894261651e-02  6.0882083757684571e-02  6.0714320594600912e-02  6.0541670751248416e-02  6.0369588188893208e-02  6.0204097168486966e-02  6.0030397228985531e-02  5.9858037774366255e-02  5.9684080252698099e-02  5.9516120976763565e-02  5.9342897449812915e-02  5.9180070863831549e-02  5.9011629623512807e-02  5.8847490546497551e-02  5.8680294430263090e-02  5.8514542789087159e-02  5.8355396586079668e-02  5.8192701360208765e-02  5.8040379382578944e-02  5.7882321259383723e-02  5.7727292237186652e-02  5.7570412085254249e-02  5.7421525428553735e-02  5.7266063148484883e-02  5.7115713417122925e-02  5.6960972045417772e-02  5.6807305632843197e-02  5.6652781779402840e-02  5.6506577391745347e-02  5.6355391889111782e-02  5.6211809210930191e-02  5.6063131348566067e-02  5.5915945191676288e-02  5.5776863698499629e-02  5.5631751946142997e-02  5.5490744578061968e-02  5.5347023949957511e-02  5.5204955403931583e-02  5.5071404570906105e-02  5.4933332888870756e-02  5.4793809204323675e-02  5.4656658449519557e-02  5.4527964952604445e-02  5.4396497467167057e-02  5.4272703075625761e-02  5.4146765962304465e-02  5.4023423178887926e-02  5.3908765573723628e-02  5.3791245804428553e-02  5.3677640167052551e-02  5.3566160222371283e-02  5.3463439294515934e-02  5.3359445026153696e-02  5.3259722569517311e-02  5.3162743219039410e-02  5.3074738023029415e-02  5.2986405285990135e-02  5.2899871332784842e-02  5.2822426561655048e-02  5.2748657461870560e-02  5.2684051677945709e-02  5.2621677872654503e-02  5.2567278636065320e-02  5.2515113682249266e-02  5.2469749049538141e-02  5.2430770931343025e-02  5.2403081057842957e-02  5.2383814898034654e-02  5.2376684003901462e-02  5.2381534575436497e-02  5.2394995979354909e-02  5.2427533341195015e-02  5.2478270229032474e-02  5.2544599622535236e-02  5.2633620516367760e-02  5.2743730719117858e-02  5.2877761661909252e-02  5.3047784617108767e-02  5.3249725984998365e-02  5.3487646932709708e-02  5.3755774911227107e-02  5.4078748463174932e-02  5.4443130575746415e-02  5.4881804257361069e-02  5.5338117687638445e-02  5.5599324205801742e-02  4.3001580623176765e-02  3.5601597725463272e-02  2.9442472523094079e-02  2.5202775904506251e-02  2.1520487295419586e-02  1.8263449137055618e-02  1.5864220810832115e-02  1.3615721545633591e-02  1.1737074132050126e-02  1.0130226198526862e-02  8.9307601051533039e-03  7.7757499475183340e-03  6.7478399893372096e-03  5.9385261620774560e-03  5.2511450770063558e-03  4.7306646888135287e-03  4.2488449654240791e-03  3.8869608337066259e-03  3.5576975654961060e-03  3.3072545495064854e-03  3.1230447344704373e-03  2.9950882417849305e-03  2.9076977583425740e-03  2.8601695872073336e-03  2.8415306931295140e-03  2.8606616065976736e-03  2.9079444633876737e-03  2.9947276998653332e-03  3.1193247272125464e-03  3.3004087514671215e-03  3.5485650173982266e-03  3.8744911644640508e-03  4.2333841014625725e-03  4.7119399126636123e-03  5.2308321234146998e-03  5.9184515219170989e-03  6.7328616848592255e-03  7.7123905286390392e-03  8.7281612221671787e-03  1.0087257957692185e-02  1.1554507589575881e-02  1.3398683960932706e-02  1.5445542333156795e-02  1.7611376455606141e-02  2.0553188227887851e-02  2.3839340694519380e-02  2.7488980246154156e-02  3.2670041923086118e-02  3.9532876140916710e-02  4.9708812432361513e-02  4.8767749046237527e-02  4.8017602441470672e-02  4.7335412498626224e-02  4.6750051705442872e-02  4.6220611516644756e-02  4.5759026724096347e-02  4.5317322952440273e-02  4.4893849942938546e-02  4.4517661139475348e-02  4.4155844976657796e-02  4.3830720141334489e-02  4.3514754681586443e-02  4.3216398673022280e-02  4.2935330997073064e-02  4.2680372940452592e-02  4.2426065872188903e-02  4.2175280610080530e-02  4.1944600967250258e-02  4.1713969721700876e-02  4.1496159326995234e-02  4.1282241333243971e-02  4.1086374294080900e-02  4.0888643850334902e-02  4.0698590703270233e-02  4.0509870773047282e-02  4.0334805159631566e-02  4.0157577161444816e-02  3.9986928700534281e-02  3.9814571298284758e-02  3.9645771311980930e-02  3.9487587760338637e-02  3.9325797028488471e-02  3.9167062025993273e-02  3.9012272594772815e-02  3.8866878297832565e-02  3.8718542635086971e-02  3.8571865173032155e-02  3.8433785250940725e-02  3.8291254867971816e-02  3.8151265411917101e-02  3.8011833030503289e-02  3.7880028515037523e-02  3.7743684368424020e-02  3.7610324474250993e-02  3.7484407580723876e-02  3.7352380970330341e-02  3.7223241616649666e-02  3.7094332308047949e-02  3.6973879776699324e-02  3.6849407608580402e-02  3.6731359165554721e-02  3.6610656201950267e-02  3.6489294827963238e-02  3.6372792122061216e-02  3.6255409820101461e-02  3.6144349564626012e-02  3.6028358293274887e-02  3.5911093554001253e-02  3.5799429551269996e-02  3.5683601236844047e-02  3.5572519122696621e-02  3.5456758112101090e-02  3.5342664609052513e-02  3.5229999705741824e-02  3.5123508065164753e-02  3.5012415506312157e-02  3.4900072012150146e-02  3.4793076388930227e-02  3.4682189980236665e-02  3.4572242788000120e-02  3.4460760914835124e-02  3.4355595834157447e-02  3.4246914383010515e-02  3.4143715379375814e-02  3.4036581545044194e-02  3.3931295236617025e-02  3.3826904324942488e-02  3.3728169759454800e-02  3.3624946965257828e-02  3.3519837919660810e-02  3.3419724785847475e-02  3.3316469494641732e-02  3.3218111494248012e-02  3.3116069961075391e-02  3.3014793021785969e-02  3.2914616913832948e-02  3.2818533274948686e-02  3.2720036490914678e-02  3.2626507148048545e-02  3.2528933368631656e-02  3.2434351655199353e-02  3.2336808915491795e-02  3.2239082017340569e-02  3.2141349976865193e-02  3.2048481056729458e-02  3.1952371649669659e-02  3.1860142507335668e-02  3.1764668880056697e-02  3.1670067293161366e-02  3.1580373974354155e-02  3.1486577580328461e-02  3.1394558123144449e-02  3.1300366698762343e-02  3.1207243988747326e-02  3.1118525399796825e-02  3.1025950093112264e-02  3.0934200020017979e-02  3.0842053129702271e-02  3.0754087656572775e-02  3.0662292047279514e-02  3.0571944081202892e-02  3.0486098160530824e-02  3.0395547894373855e-02  3.0306198092078240e-02  3.0216656822944065e-02  3.0132526262350044e-02  3.0045416136824130e-02  2.9960189284457543e-02  2.9872857403128908e-02  2.9786314499657362e-02  2.9703416026758848e-02  2.9616432644084690e-02  2.9528930489980482e-02  2.9441475947623166e-02  2.9358585792226988e-02  2.9272683759759416e-02  2.9185854448155440e-02  2.9102204597360307e-02  2.9016920956531439e-02  2.8935463254277621e-02  2.8850485671249908e-02  2.8765843251423624e-02  2.8680834195010170e-02  2.8600241297501602e-02  2.8516323521793337e-02  2.8431737920141205e-02  2.8350800771195811e-02  2.8267728740774239e-02  2.8188386780266087e-02  2.8105872931881343e-02  2.8024058369932759e-02  2.7946249538225984e-02  2.7864537452375999e-02  2.7783740811749752e-02  2.7702036777769081e-02  2.7624479267603922e-02  2.7543140417567443e-02  2.7463350332610527e-02  2.7382243125744096e-02  2.7305574814824037e-02  2.7225164481139996e-02  2.7144118071848349e-02  2.7067758934029403e-02  2.6988381619535623e-02  2.6908330041520542e-02  2.6832651168409060e-02  2.6754880219617125e-02  2.6676584781458876e-02  2.6600876074945795e-02  2.6523959000648946e-02  2.6450611988934249e-02  2.6373719690354291e-02  2.6297685441471895e-02  2.6221309051058551e-02  2.6149111022373186e-02  2.6073878723510222e-02  2.5997935851728465e-02  2.5925457514533470e-02  2.5850182619705408e-02  2.5775413684194021e-02  2.5699413480522005e-02  2.5627442250212761e-02  2.5552581273911284e-02  2.5481312707525582e-02  2.5406941916291188e-02  2.5333674051836473e-02  2.5260813178523554e-02  2.5191491757624012e-02  2.5118579482632287e-02  2.5044361445887356e-02  2.4973687991350583e-02  2.4900393558049634e-02  2.4830000634075481e-02  2.4757173855667641e-02  2.4684862865373025e-02  2.4613506237942468e-02  2.4545445211903539e-02  2.4474935462351549e-02  2.4404616926836181e-02  2.4337299861231010e-02  2.4266835706887927e-02  2.4196148053967470e-02  2.4125584690596391e-02  2.4058482305332432e-02  2.3988712432791350e-02  2.3918190483906126e-02  2.3850489864564717e-02  2.3780300969058817e-02  2.3709966738794400e-02  2.3641641633317619e-02  2.3571751914510993e-02  2.3505568300207471e-02  2.3436226518700604e-02  2.3369947642465111e-02  2.3301418673491409e-02  2.3232250875897399e-02  2.3165488268782730e-02  2.3097924943050557e-02  2.3033926261671306e-02  2.2966689607609479e-02  2.2902922590662678e-02  2.2835944910726640e-02  2.2770605331552198e-02  2.2703427858952907e-02  2.2636460955116372e-02  2.2571004286881198e-02  2.2508874686151422e-02  2.2444002633021560e-02  2.2378788452384654e-02  2.2316374399169774e-02  2.2251420282477952e-02  2.2186345011810722e-02  2.2120837436184305e-02  2.2058758061868574e-02  2.1994374343977666e-02  2.1933282335588371e-02  2.1869983375435054e-02  2.1806333204019038e-02  2.1743192785839551e-02  2.1682723693672544e-02  2.1619821979371866e-02  2.1556279455042925e-02  2.1492477581311894e-02  2.1431349688832591e-02  2.1367933081223874e-02  2.1307354436441717e-02  2.1244328613905232e-02  2.1181572346194291e-02  2.1119598573749912e-02  2.1060536968107085e-02  2.0999393399630240e-02  2.0938446880169038e-02  2.0880170560937123e-02  2.0819216320015765e-02  2.0758299787268952e-02  2.0697462964993158e-02  2.0639829937857099e-02  2.0580112176112338e-02  2.0519865461497477e-02  2.0462195017623242e-02  2.0402563376514648e-02  2.0343099741465320e-02  2.0286001278886689e-02  2.0226517394727549e-02  2.0167655456680537e-02  2.0112162767160817e-02  2.0054481903377268e-02  1.9996700172813388e-02  1.9939174965738150e-02  1.9884147270247655e-02  1.9826865936892160e-02  1.9770568248414160e-02  1.9716895813531261e-02  1.9660066744901065e-02  1.9604722900765578e-02  1.9547420675256354e-02  1.9490513873215699e-02  1.9434516000412357e-02  1.9381409440560278e-02  1.9325894865554503e-02  1.9269788309453629e-02  1.9216150404525175e-02  1.9160349514218317e-02  1.9104844327649660e-02  1.9048386473035816e-02  1.8994884187868447e-02  1.8939215498037905e-02  1.8886174078459893e-02  1.8830799922396679e-02  1.8776166380090841e-02  1.8721808619535305e-02  1.8670242958602340e-02  1.8616171122155675e-02  1.8561006648599210e-02  1.8508344719330549e-02  1.8453906263228775e-02  1.8401982781550166e-02  1.8348044349294886e-02  1.8294370981054887e-02  1.8241388754129537e-02  1.8190905621992250e-02  1.8138652847052530e-02  1.8086569381342271e-02  1.8036761248499376e-02  1.7984657455417379e-02  1.7932571157234050e-02  1.7880535205726144e-02  1.7831214574366188e-02  1.7780083463976235e-02  1.7728484060994271e-02  1.7679061941948692e-02  1.7627928576848015e-02  1.7576919409859