<?xml version="1.0"?>
<VTKFile type="UnstructuredGrid"  version="0.1"  >
<UnstructuredGrid>
<Piece  NumberOfPoints="5161" NumberOfCells="8120">
<Points>
<DataArray  type="Float64"  NumberOfComponents="3"  format="ascii">0 0.01 0  0 0 0  0.01 0 0  0.02 0 0  0.03 0 0  0.04 0 0  0.05 0 0  0.06 0 0  0.07000000000000001 0 0  0.08 0 0  0.09 0 0  0.1 0 0  0.11 0 0  0.12 0 0  0.13 0 0  0.14 0 0  0.15 0 0  0.16 0 0  0.17 0 0  0.18 0 0  0.19 0 0  0.2 0 0  0.21 0 0  0.22 0 0  0.23 0 0  0.24 0 0  0.25 0 0  0.26 0 0  0.27 0 0  0.28 0 0  0.29 0 0  0.3 0 0  0.31 0 0  0.32 0 0  0.33 0 0  0.34 0 0  0.35 0 0  0.36 0 0  0.37 0 0  0.38 0 0  0.39 0 0  0.4 0 0  0.41 0 0  0.42 0 0  0.43 0 0  0.44 0 0  0.45 0 0  0.46 0 0  0.47 0 0  0.48 0 0  0.49 0 0  0.5 0 0  0.51 0 0  0.52 0 0  0.53 0 0  0.54 0 0  0.55 0 0  0.5600000000000001 0 0  0.57 0 0  0.58 0 0  0.59 0 0  0.6 0 0  0.61 0 0  0.62 0 0  0.63 0 0  0.64 0 0  0.65 0 0  0.66 0 0  0.67 0 0  0.68 0 0  0.6899999999999999 0 0  0.7 0 0  0.71 0 0  0.72 0 0  0.73 0 0  0.74 0 0  0.75 0 0  0.76 0 0  0.77 0 0  0.78 0 0  0.79 0 0  0.8 0 0  0.8100000000000001 0 0  0.82 0 0  0.83 0 0  0.84 0 0  0.85 0 0  0.86 0 0  0.87 0 0  0.88 0 0  0.89 0 0  0.9 0 0  0.91 0 0  0.92 0 0  0.93 0 0  0.9399999999999999 0 0  0.95 0 0  0.96 0 0  0.97 0 0  0.98 0 0  0.99 0 0  1 0 0  1.01 0 0  1.02 0 0  1.03 0 0  1.04 0 0  1.05 0 0  1.06 0 0  1.07 0 0  1.08 0 0  1.09 0 0  1.1 0 0  1.11 0 0  1.12 0 0  1.13 0 0  1.14 0 0  1.15 0 0  1.16 0 0  1.17 0 0  1.18 0 0  1.19 0 0  1.2 0 0  1.21 0 0  1.22 0 0  1.23 0 0  1.24 0 0  1.25 0 0  1.26 0 0  1.27 0 0  1.28 0 0  1.29 0 0  1.3 0 0  1.31 0 0  1.32 0 0  1.33 0 0  1.34 0 0  1.35 0 0  1.36 0 0  1.37 0 0  1.38 0 0  1.39 0 0  1.4 0 0  1.41 0 0  1.42 0 0  1.43 0 0  1.44 0 0  1.45 0 0  1.46 0 0  1.47 0 0  1.48 0 0  1.49 0 0  1.5 0 0  1.51 0 0  1.52 0 0  1.53 0 0  1.54 0 0  1.55 0 0  1.56 0 0  1.57 0 0  1.58 0 0  1.59 0 0  1.6 0 0  1.61 0 0  1.62 0 0  1.63 0 0  1.64 0 0  1.65 0 0  1.66 0 0  1.67 0 0  1.68 0 0  1.69 0 0  1.7 0 0  1.71 0 0  1.72 0 0  1.73 0 0  1.74 0 0  1.75 0 0  1.76 0 0  1.77 0 0  1.78 0 0  1.79 0 0  1.8 0 0  1.81 0 0  1.82 0 0  1.83 0 0  1.84 0 0  1.85 0 0  1.86 0 0  1.87 0 0  1.88 0 0  1.89 0 0  1.9 0 0  1.91 0 0  1.92 0 0  1.93 0 0  1.94 0 0  1.95 0 0  1.96 0 0  1.97 0 0  1.98 0 0  1.99 0 0  2 0 0  2.01 0 0  2.02 0 0  2.03 0 0  2.04 0 0  2.05 0 0  2.06 0 0  2.07 0 0  2.08 0 0  2.09 0 0  2.1 0 0  2.11 0 0  2.12 0 0  2.13 0 0  2.14 0 0  2.15 0 0  2.16 0 0  2.17 0 0  2.18 0 0  2.19 0 0  2.2 0 0  2.21 0 0  2.22 0 0  2.23 0 0  2.24 0 0  2.25 0 0  2.26 0 0  2.27 0 0  2.28 0 0  2.29 0 0  2.3 0 0  2.31 0 0  2.32 0 0  2.33 0 0  2.34 0 0  2.35 0 0  2.36 0 0  2.37 0 0  2.38 0 0  2.39 0 0  2.4 0 0  2.41 0 0  2.42 0 0  2.43 0 0  2.44 0 0  2.45 0 0  2.46 0 0  2.47 0 0  2.48 0 0  2.49 0 0  2.5 0 0  2.51 0 0  2.52 0 0  2.53 0 0  2.54 0 0  2.55 0 0  2.56 0 0  2.57 0 0  2.58 0 0  2.59 0 0  2.6 0 0  2.61 0 0  2.62 0 0  2.63 0 0  2.64 0 0  2.65 0 0  2.66 0 0  2.67 0 0  2.68 0 0  2.69 0 0  2.7 0 0  2.71 0 0  2.72 0 0  2.73 0 0  2.74 0 0  2.75 0 0  2.76 0 0  2.77 0 0  2.78 0 0  2.79 0 0  2.8 0 0  2.81 0 0  2.82 0 0  2.83 0 0  2.84 0 0  2.85 0 0  2.86 0 0  2.87 0 0  2.88 0 0  2.89 0 0  2.9 0 0  2.91 0 0  2.92 0 0  2.93 0 0  2.94 0 0  2.95 0 0  2.96 0 0  2.97 0 0  2.98 0 0  2.99 0 0  3 0 0  3.01 0 0  3.02 0 0  3.03 0 0  3.04 0 0  3.05 0 0  3.06 0 0  3.07 0 0  3.08 0 0  3.09 0 0  3.1 0 0  3.11 0 0  3.12 0 0  3.13 0 0  3.14 0 0  3.15 0 0  3.16 0 0  3.17 0 0  3.18 0 0  3.19 0 0  3.2 0 0  3.21 0 0  3.22 0 0  3.23 0 0  3.24 0 0  3.25 0 0  3.26 0 0  3.27 0 0  3.28 0 0  3.29 0 0  3.3 0 0  3.31 0 0  3.32 0 0  3.33 0 0  3.34 0 0  3.35 0 0  3.36 0 0  3.37 0 0  3.38 0 0  3.39 0 0  3.4 0 0  3.41 0 0  3.42 0 0  3.43 0 0  3.44 0 0  3.45 0 0  3.46 0 0  3.47 0 0  3.48 0 0  3.49 0 0  3.5 0 0  3.51 0 0  3.52 0 0  3.53 0 0  3.54 0 0  3.55 0 0  3.56 0 0  3.57 0 0  3.58 0 0  3.59 0 0  3.6 0 0  3.61 0 0  3.62 0 0  3.63 0 0  3.64 0 0  3.65 0 0  3.66 0 0  3.67 0 0  3.68 0 0  3.69 0 0  3.7 0 0  3.71 0 0  3.72 0 0  3.73 0 0  3.74 0 0  3.75 0 0  3.76 0 0  3.77 0 0  3.78 0 0  3.79 0 0  3.8 0 0  3.81 0 0  3.82 0 0  3.83 0 0  3.84 0 0  3.85 0 0  3.86 0 0  3.87 0 0  3.88 0 0  3.89 0 0  3.9 0 0  3.91 0 0  3.92 0 0  3.93 0 0  3.94 0 0  3.95 0 0  3.96 0 0  3.97 0 0  3.98 0 0  3.99 0 0  4 0 0  4.01 -0.03141463462364068 0  4.02 -0.06282151815625525 0  4.03 -0.09421290141928611 0  4.04 -0.1255810390586269 0  4.05 -0.1569181914556893 0  4.06 -0.1882166266370274 0  4.07 -0.2194686221820914 0  4.08 -0.2506664671286087 0  4.09 -0.2818024638751649 0  4.1 -0.3128689300804606 0  4.11 -0.34385820055882 0  4.12 -0.3747626291714495 0  4.13 -0.4055745907130247 0  4.14 -0.4362864827930841 0  4.15 -0.4668907277118119 0  4.16 -0.49737977432971 0  4.17 -0.5277460999307455 0  4.18 -0.5579822120784577 0  4.19 -0.588080650464609 0  4.2 -0.6180339887498953 0  4.21 -0.6478348363962988 0  4.22 -0.677475840490582 0  4.23 -0.7069496875585155 0  4.24 -0.7362491053693565 0  4.25 -0.7653668647301796 0  4.26 -0.7942957812695606 0  4.27 -0.8230287172102163 0  4.28 -0.851558583130146 0  4.29 -0.8798783397118303 0  4.3 -0.9079809994790931 0  4.31 -0.9358596285211457 0  4.32 -0.9635073482034314 0  4.33 -0.9909173368648152 0  4.34 -1.018082831500742 0  4.35 -1.044997129431897 0  4.36 -1.071653589957994 0  4.37 -1.098045635996264 0  4.38 -1.124166755704261 0  4.39 -1.150010504086556 0  4.4 -1.175570504584947 0  4.41 -1.200840450651768 0  4.42 -1.225814107305953 0  4.43 -1.250485312671409 0  4.44 -1.27484797949738 0  4.45 -1.298896096660368 0  4.46 -1.322623730647304 0  4.47 -1.346025027019546 0  4.48 -1.369094211857378 0  4.49 -1.391825593184629 0  4.5 -1.414213562373095 0  4.51 -1.436252595526377 0  4.52 -1.457937254842822 0  4.53 -1.47926218995722 0  4.54 -1.500222139260919 0  4.55 -1.520811931200061 0  4.56 -1.541026485551578 0  4.57 -1.56086081467666 0  4.58 -1.580310024751381 0  4.59 -1.599369316974181 0  4.6 -1.618033988749894 0  4.61 -1.636299434850047 0  4.62 -1.654161148549124 0  4.63 -1.67161472273654 0  4.64 -1.688655851004029 0  4.65 -1.705280328708185 0  4.66 -1.721484054007887 0  4.67 -1.737263028876382 0  4.68 -1.752613360087727 0  4.69 -1.767531260177387 0  4.7 -1.782013048376736 0  4.71 -1.796055151521231 0  4.72 -1.809654104932039 0  4.73 -1.822806553270891 0  4.74 -1.835509251367963 0  4.75 -1.847759065022573 0  4.76 -1.859552971776502 0  4.77 -1.870888061659734 0  4.78 -1.881761537908451 0  4.79 -1.892170717655091 0  4.8 -1.902113032590307 0  4.81 -1.91158602959666 0  4.82 -1.920587371353886 0  4.83 -1.929114836915596 0  4.84 -1.937166322257262 0  4.85 -1.944739840795353 0  4.86 -1.951833523877495 0  4.87 -1.958445621243532 0  4.88 -1.964574501457377 0  4.89 -1.970218652309548 0  4.9 -1.975376681190276 0  4.91 -1.980047315433115 0  4.92 -1.984229402628956 0  4.93 -1.987921910910359 0  4.94 -1.99112392920616 0  4.95 -1.993834667466256 0  4.96 -1.996053456856543 0  4.97 -1.99777974992394 0  4.98 -1.999013120731463 0  4.99 -1.999753264963321 0  5 -2 0  5.01 -1.999753264963321 0  5.02 -1.999013120731463 0  5.03 -1.99777974992394 0  5.04 -1.996053456856543 0  5.05 -1.993834667466256 0  5.06 -1.99112392920616 0  5.07 -1.987921910910359 0  5.08 -1.984229402628956 0  5.09 -1.980047315433115 0  5.1 -1.975376681190276 0  5.11 -1.970218652309548 0  5.12 -1.964574501457377 0  5.13 -1.958445621243532 0  5.14 -1.951833523877495 0  5.15 -1.944739840795353 0  5.16 -1.937166322257262 0  5.17 -1.929114836915596 0  5.18 -1.920587371353886 0  5.19 -1.91158602959666 0  5.2 -1.902113032590307 0  5.21 -1.892170717655091 0  5.22 -1.881761537908451 0  5.23 -1.870888061659734 0  5.24 -1.859552971776503 0  5.25 -1.847759065022573 0  5.26 -1.835509251367963 0  5.27 -1.822806553270891 0  5.28 -1.809654104932039 0  5.29 -1.796055151521231 0  5.3 -1.782013048376736 0  5.31 -1.767531260177387 0  5.32 -1.752613360087727 0  5.33 -1.737263028876382 0  5.34 -1.721484054007888 0  5.35 -1.705280328708185 0  5.36 -1.68865585100403 0  5.37 -1.67161472273654 0  5.38 -1.654161148549124 0  5.39 -1.636299434850047 0  5.4 -1.618033988749894 0  5.41 -1.599369316974181 0  5.42 -1.580310024751381 0  5.43 -1.56086081467666 0  5.44 -1.541026485551578 0  5.45 -1.520811931200061 0  5.46 -1.500222139260919 0  5.47 -1.47926218995722 0  5.48 -1.457937254842822 0  5.49 -1.436252595526377 0  5.5 -1.414213562373095 0  5.51 -1.39182559318463 0  5.52 -1.369094211857378 0  5.53 -1.346025027019547 0  5.54 -1.322623730647304 0  5.55 -1.298896096660368 0  5.56 -1.27484797949738 0  5.57 -1.25048531267141 0  5.58 -1.225814107305953 0  5.59 -1.200840450651769 0  5.6 -1.175570504584947 0  5.61 -1.150010504086557 0  5.62 -1.124166755704261 0  5.63 -1.098045635996264 0  5.64 -1.071653589957994 0  5.65 -1.044997129431897 0  5.66 -1.018082831500742 0  5.67 -0.9909173368648155 0  5.68 -0.9635073482034312 0  5.69 -0.935859628521146 0  5.7 -0.9079809994790929 0  5.71 -0.8798783397118306 0  5.72 -0.8515585831301458 0  5.73 -0.8230287172102166 0  5.74 -0.7942957812695605 0  5.75 -0.7653668647301798 0  5.76 -0.7362491053693571 0  5.77 -0.7069496875585156 0  5.78 -0.6774758404905826 0  5.79 -0.6478348363962989 0  5.8 -0.6180339887498959 0  5.81 -0.5880806504646091 0  5.82 -0.5579822120784582 0  5.83 -0.5277460999307456 0  5.84 -0.4973797743297105 0  5.85 -0.4668907277118119 0  5.86 -0.4362864827930846 0  5.87 -0.4055745907130247 0  5.88 -0.37476262917145 0  5.89 -0.34385820055882 0  5.9 -0.3128689300804611 0  5.91 -0.2818024638751648 0  5.92 -0.2506664671286091 0  5.93 -0.2194686221820913 0  5.94 -0.1882166266370278 0  5.95 -0.1569181914556892 0  5.96 -0.1255810390586272 0  5.97 -0.09421290141928591 0  5.98 -0.06282151815625558 0  5.99 -0.03141463462364053 0  6 -2.449293598294706e-16 0  6.01 0 0  6.02 0 0  6.03 0 0  6.04 0 0  6.05 0 0  6.06 0 0  6.07 0 0  6.08 0 0  6.09 0 0  6.1 0 0  6.11 0 0  6.12 0 0  6.13 0 0  6.14 0 0  6.15 0 0  6.16 0 0  6.17 0 0  6.18 0 0  6.19 0 0  6.2 0 0  6.21 0 0  6.22 0 0  6.23 0 0  6.24 0 0  6.25 0 0  6.26 0 0  6.27 0 0  6.28 0 0  6.29 0 0  6.3 0 0  6.31 0 0  6.32 0 0  6.33 0 0  6.34 0
[...]
<PointData  Scalars="f_2986"> 
<DataArray  type="Float64"  Name="f_2986"  format="ascii">1.0000000000000000e+00  1.0000000000000000e+00  8.4498191476442519e-01  7.4912972439494385e-01  6.7734085990068582e-01  6.2252868383675508e-01  5.7953168481009765e-01  5.4366193328864043e-01  5.1262501577164810e-01  4.8709173109305831e-01  4.6438914809651050e-01  4.4459844665647058e-01  4.2651934588924123e-01  4.1059269837599610e-01  3.9595687346520420e-01  3.8334861878707227e-01  3.7145510920857844e-01  3.6050450074035761e-01  3.5016153400981698e-01  3.4101631700827151e-01  3.3215896526453714e-01  3.2400702825892036e-01  3.1629712343669553e-01  3.0947297072096802e-01  3.0294230645882869e-01  2.9666656232928307e-01  2.9105899610779457e-01  2.8559130922566889e-01  2.8047035327725928e-01  2.7557726906154001e-01  2.7115022478095702e-01  2.6676503918229433e-01  2.6261443418372793e-01  2.5862376103749168e-01  2.5500646256571868e-01  2.5140618304941525e-01  2.4785280400840839e-01  2.4460025116647022e-01  2.4139968708859413e-01  2.3843969493670608e-01  2.3551854151808060e-01  2.3285666128791535e-01  2.3017470781561855e-01  2.2759698753833416e-01  2.2504502411170213e-01  2.2268382406094459e-01  2.2028302406181371e-01  2.1802714282271868e-01  2.1577734547375318e-01  2.1361403139966614e-01  2.1152085775332830e-01  2.0960876059760050e-01  2.0770269975954603e-01  2.0581118556075959e-01  2.0403959783915973e-01  2.0228281569029169e-01  2.0064533409333160e-01  1.9897895596152645e-01  1.9737338645331309e-01  1.9577418087613035e-01  1.9429559252106507e-01  1.9278696244326271e-01  1.9134106127591821e-01  1.8990398199964686e-01  1.8856359423501040e-01  1.8720331323619077e-01  1.8587353290254813e-01  1.8463679408199307e-01  1.8336738289442159e-01  1.8211362510183782e-01  1.8087235715194222e-01  1.7971439615006590e-01  1.7853603170772622e-01  1.7742749911982317e-01  1.7629229937360799e-01  1.7519147707203711e-01  1.7410487225422208e-01  1.7307544422787455e-01  1.7203405005489750e-01  1.7106795489172064e-01  1.7008090010222257e-01  1.6912569741066835e-01  1.6815848236349712e-01  1.6720580465607521e-01  1.6630271989577775e-01  1.6536401367909373e-01  1.6446194525097080e-01  1.6356842669434701e-01  1.6272539196539862e-01  1.6187516648604544e-01  1.6108733059795330e-01  1.6028243569993292e-01  1.5950445555521597e-01  1.5871717452508929e-01  1.5794159352121859e-01  1.5720684437634228e-01  1.5644282108911031e-01  1.5569269738609473e-01  1.5494407604359925e-01  1.5424317811353480e-01  1.5352449992590483e-01  1.5280257960518831e-01  1.5211357708061518e-01  1.5141124611991841e-01  1.5074447030148147e-01  1.5005536228454533e-01  1.4936854895295626e-01  1.4868575848903842e-01  1.4804178072456978e-01  1.4737566632478324e-01  1.4670635289154038e-01  1.4607115693265066e-01  1.4542612871852553e-01  1.4481716647562998e-01  1.4419135650090170e-01  1.4357102361713284e-01  1.4298902503286287e-01  1.4238850135391962e-01  1.4178190685663017e-01  1.4118146028188691e-01  1.4060952153475892e-01  1.4003221289293416e-01  1.3948927775695319e-01  1.3892340345311693e-01  1.3838854930777961e-01  1.3782909683109418e-01  1.3728034011629403e-01  1.3671966190809623e-01  1.3616607472718251e-01  1.3564089643522012e-01  1.3510071306205806e-01  1.3459620578335160e-01  1.3407508322805747e-01  1.3357221246081002e-01  1.3306367976349270e-01  1.3255611280632437e-01  1.3206812132753223e-01  1.3157510973091088e-01  1.3110822189436516e-01  1.3062222938144175e-01  1.3015504676973702e-01  1.2967759077659199e-01  1.2920535968135477e-01  1.2873483836282570e-01  1.2828935076487386e-01  1.2783097972721458e-01  1.2737021880383576e-01  1.2692456686137141e-01  1.2647130276559537e-01  1.2604325632030081e-01  1.2559737484105266e-01  1.2516151013832544e-01  1.2471982315069061e-01  1.2430130656006309e-01  1.2386957915868983e-01  1.2344741995651354e-01  1.2301264585316531e-01  1.2258239200432608e-01  1.2217131653930562e-01  1.2174287227981336e-01  1.2131765344133297e-01  1.2089871249457507e-01  1.2050115960616599e-01  1.2009129003012110e-01  1.1968326400651594e-01  1.1929310535586400e-01  1.1888905881922118e-01  1.1850718822076721e-01  1.1810793126268242e-01  1.1771648431916956e-01  1.1732453048374146e-01  1.1695760456704173e-01  1.1657626174327215e-01  1.1619130643302630e-01  1.1582795451416784e-01  1.1545281100352936e-01  1.1508252226202136e-01  1.1471189886864996e-01  1.1436164798423934e-01  1.1399882987756156e-01  1.1363248182760788e-01  1.1327919418595588e-01  1.1292139890090996e-01  1.1258219014279518e-01  1.1222708946206635e-01  1.1186785531081028e-01  1.1152555358606338e-01  1.1116989871809271e-01  1.1082861674950931e-01  1.1047237901003855e-01  1.1012130183867293e-01  1.0977424055911787e-01  1.0944784882776101e-01  1.0910769679750296e-01  1.0876197664579215e-01  1.0843212400185900e-01  1.0808949154613655e-01  1.0775717819884677e-01  1.0741470334987102e-01  1.0707569594306132e-01  1.0675388924732132e-01  1.0641908634446608e-01  1.0608942632439591e-01  1.0576179538715112e-01  1.0545093956653250e-01  1.0512489294440784e-01  1.0479370548321457e-01  1.0447884264525606e-01  1.0415283745963937e-01  1.0383995462905583e-01  1.0351654540741995e-01  1.0319537006683450e-01  1.0287832119888175e-01  1.0257385735839768e-01  1.0226174338947203e-01  1.0196504331129387e-01  1.0165515081045606e-01  1.0135449630802476e-01  1.0104414259289410e-01  1.0073272662442845e-01  1.0042058625790198e-01  1.0012149387604047e-01  9.9815559672819118e-02  9.9527820752250196e-02  9.9227282806733444e-02  9.8920479907222622e-02  9.8626904307290916e-02  9.8321208371408050e-02  9.8014811865521426e-02  9.7710243030047578e-02  9.7422075779412032e-02  9.7121450224783981e-02  9.6817942571143914e-02  9.6531565803955624e-02  9.6238499603089236e-02  9.5944492535213449e-02  9.5661028150796634e-02  9.5373854644101891e-02  9.5101025966477959e-02  9.4816076092244253e-02  9.4534715725853216e-02  9.4252383778151927e-02  9.3985557544700407e-02  9.3707580943389254e-02  9.3426997063625450e-02  9.3159247990985281e-02  9.2881203895052153e-02  9.2605096501515854e-02  9.2324518277373493e-02  9.2058935170175910e-02  9.1782817065003755e-02  9.1520085097713130e-02  9.1246059574250332e-02  9.0976221951962602e-02  9.0707998759379529e-02  9.0452904676835033e-02  9.0184701149667160e-02  8.9911755199399063e-02  8.9651889047467015e-02  8.9382431934560302e-02  8.9123426287046337e-02  8.8855229652604881e-02  8.8588145100447380e-02  8.8326617234401522e-02  8.8078534035407635e-02  8.7819525570573126e-02  8.7572086092794571e-02  8.7312393703093807e-02  8.7053059373056726e-02  8.6793189184468725e-02  8.6547038914119440e-02  8.6291828367182535e-02  8.6034155899391229e-02  8.5786604280064599e-02  8.5529582564523407e-02  8.5272175540401160e-02  8.5021630098442907e-02  8.4763519527106590e-02  8.4519700701687142e-02  8.4264273475985405e-02  8.4020343006019876e-02  8.3768009058311790e-02  8.3513617015876701e-02  8.3268576540444006e-02  8.3020593895367339e-02  8.2786288735850991e-02  8.2540787375311481e-02  8.2308556869326838e-02  8.2065301071337304e-02  8.1828437678122451e-02  8.1585604410413390e-02  8.1343368620437465e-02  8.1106631328455761e-02  8.0881598049081946e-02  8.0646343952040678e-02  8.0409701270299297e-02  8.0182906802483148e-02  7.9946542395423689e-02  7.9709873959062302e-02  7.9471017793378368e-02  7.9245172485243029e-02  7.9011453980340318e-02  7.8790214671839096e-02  7.8561531305813975e-02  7.8333759838090364e-02  7.8118094564340906e-02  7.7893520071953035e-02  7.7667652471063983e-02  7.7444354989694736e-02  7.7231883995692127e-02  7.7011014204771952e-02  7.6798804510965699e-02  7.6576559213902357e-02  7.6357275266549215e-02  7.6149788562146700e-02  7.5932229260935694e-02  7.5717105794253378e-02  7.5496485510449032e-02  7.5278597790110702e-02  7.5071404173080461e-02  7.4856183650363575e-02  7.4642705341662632e-02  7.4440361151507969e-02  7.4228471686064126e-02  7.4021604255906176e-02  7.3810235080038783e-02  7.3601304540760359e-02  7.3403066117640373e-02  7.3196452468688541e-02  7.2992496315228916e-02  7.2788418422662385e-02  7.2596173095336849e-02  7.2397728203029227e-02  7.2204311935513868e-02  7.2007846745425708e-02  7.1812949714079949e-02  7.1626038956031604e-02  7.1437396419998189e-02  7.1260342127758100e-02  7.1077059192063183e-02  7.0898387553155209e-02  7.0715987418209489e-02  7.0535719271595160e-02  7.0364665703822910e-02  7.0187302778808455e-02  7.0010957419691516e-02  6.9837802829353424e-02  6.9676004758354004e-02  6.9510881863068405e-02  6.9355725095201645e-02  6.9196830817678287e-02  6.9042953823875472e-02  6.8892045511197597e-02  6.8752385624901907e-02  6.8611333030423993e-02  6.8475369152262780e-02  6.8342916011727248e-02  6.8221913017055630e-02  6.8100821755283966e-02  6.7990488788744030e-02  6.7880632007346731e-02  6.7779531278320190e-02  6.7686142289791057e-02  6.7606195007930053e-02  6.7532003811149766e-02  6.7461723372374924e-02  6.7402713129536385e-02  6.7351201201625410e-02  6.7311896503029073e-02  6.7280805503020194e-02  6.7261180942341264e-02  6.7253464077088890e-02  6.7259179168781075e-02  6.7278155994527147e-02  6.7311341054876600e-02  6.7362182849091470e-02  6.7426945358453463e-02  6.7511157749551062e-02  6.7612016744356490e-02  6.7738756257060245e-02  6.7893337506155310e-02  6.8078418540562208e-02  6.8282488128712626e-02  6.8524621288907586e-02  6.8789056784034880e-02  6.9096662543990855e-02  6.9431026719027969e-02  6.9826830379911803e-02  7.0267397433928916e-02  7.0765334344755099e-02  7.1299367762809276e-02  7.1925912243027162e-02  7.2597868282922695e-02  7.3385242078178745e-02  7.4275288882349674e-02  7.5296844906227706e-02  7.6464090145251587e-02  7.7884814942794145e-02  7.9476519066551635e-02  8.1361207009907843e-02  8.3695635363256110e-02  8.6822494918272514e-02  7.2588620117224709e-02  6.3819904818333745e-02  5.7453729267904208e-02  5.1919519027703351e-02  4.8018712537249444e-02  4.4498457921113177e-02  4.1202311405981851e-02  3.8653502737394700e-02  3.6104558632462203e-02  3.3880423595846927e-02  3.1791357122998361e-02  3.0144659733168506e-02  2.8406501967027872e-02  2.6856920633055018e-02  2.5331456049532578e-02  2.4115861057470739e-02  2.2790046195812270e-02  2.1610086668955846e-02  2.0431744257105495e-02  1.9472951382085393e-02  1.8460420697346023e-02  1.7494437526062834e-02  1.6706873321773189e-02  1.5858479259563341e-02  1.5021598846179188e-02  1.4241938933970707e-02  1.3566764817650925e-02  1.2880273374765912e-02  1.2327323004939704e-02  1.1724057760395881e-02  1.1126530592960322e-02  1.0629110275794105e-02  1.0100705966463567e-02  9.6063432608283518e-03  9.1350306882052226e-03  8.7379179768520814e-03  8.3140229430607240e-03  7.9049870820069885e-03  7.5162669464152150e-03  7.1861782375431194e-03  6.8312246276993954e-03  6.5292946860632875e-03  6.2067604042861423e-03  5.9053620001323576e-03  5.6526932775888723e-03  5.3797603397396261e-03  5.1318120433512951e-03  4.8897738333128042e-03  4.6812192756146564e-03  4.4582929834789129e-03  4.2561935112885741e-03  4.0572520110329765e-03  3.8877941569100322e-03  3.7079759236474893e-03  3.5397723535971603e-03  3.3760248805122278e-03  3.2367373524266017e-03  3.0924982241404869e-03  2.9549113155534620e-03  2.8342373251645956e-03  2.7081706270622933e-03  2.5905066670434554e-03  2.4879610083195546e-03  2.3798804470601936e-03  2.2781215310713216e-03  2.1841332441192621e-03  2.1025820866531031e-03  2.0173221393654014e-03  1.9364252805334371e-03  1.8636086466318460e-03  1.7911138381553862e-03  1.7279320739538976e-03  1.6614436096991766e-03  1.6007771618626917e-03  1.5413856104348107e-03  1.4882455617008959e-03  1.4361201349343364e-03  1.3910790267623193e-03  1.3449087648151907e-03  1.3034243936284706e-03  1.2621543889513266e-03  1.2250165297614053e-03  1.1921624622107197e-03  1.1584918680874279e-03  1.1278425171537217e-03  1.0992500489668160e-03  1.0747526751053616e-03  1.0507324862685629e-03  1.0295443720199885e-03  1.0108818129194619e-03  9.9377381813566651e-04  9.7956411297394253e-04  9.6615813662964429e-04  9.5526894718178808e-04  9.4530650067575165e-04  9.3720066002125554e-04  9.3080323847173738e-04  9.2638791076486444e-04  9.2330568659585615e-04  9.2305376359050123e-04  9.2429966529961776e-04  9.2721020738990726e-04  9.3177690064042025e-04  9.3818423365328747e-04  9.4534281794844124e-04  9.5426332585354457e-04  9.6615039074371704e-04  9.7922966475366127e-04  9.9482904049533194e-04  1.0110643669726048e-03  1.0303442753476335e-03  1.0509244643224374e-03  1.0746826358657294e-03  1.1004308933198431e-03  1.1290532208068683e-03  1.1574971202024235e-03  1.1898703970005845e-03  1.2220200417565885e-03  1.2587315707361575e-03  1.2970179350811220e-03  1.3393013027441581e-03  1.3846970126710717e-03  1.4296537539946659e-03  1.4815029767673450e-03  1.5356176820526418e-03  1.5942874928875157e-03  1.6502446805354853e-03  1.7132860046392027e-03  1.7810392106336061e-03  1.8464834834579155e-03  1.9209241142056101e-03  1.9931630386752102e-03  2.0762031247200672e-03  2.1653250338976937e-03  2.2590700080979552e-03  2.3484645122918090e-03  2.4512579459050835e-03  2.5620321588763349e-03  2.6702019766028776e-03  2.7909407049649436e-03  2.9058314628905438e-03  3.0398974240338052e-03  3.1723475017966375e-03  3.3219723062883964e-03  3.4792364808674857e-03  3.6465498851149004e-03  3.8031689409623094e-03  3.9839204642772626e-03  4.1772263786382016e-03  4.3623025604616556e-03  4.5695629357359905e-03  4.7666209588434786e-03  4.9994688860509374e-03  5.2289643610806246e-03  5.4781872211275423e-03  5.7046531718165329e-03  5.9748047668124731e-03  6.2380844532965909e-03  6.5343700502297703e-03  6.8444286490248604e-03  7.1374773484872258e-03  7.4688003656838749e-03  7.7788934436584427e-03  8.1476851110422188e-03  8.5350729348011092e-03  8.9320118851599246e-03  9.2954440919757759e-03  9.7370776335131502e-03  1.0129467229056287e-02  1.0600476838225584e-02  1.1016944304092682e-02  1.1516410136864974e-02  1.2002606911949312e-02  1.2552604784713090e-02  1.3106805655700460e-02  1.3615261693659807e-02  1.4212649712835118e-02  1.4754298124614611e-02  1.5416221798201691e-02  1.6078182344306861e-02  1.6803753960526989e-02  1.7448348383790252e-02  1.8220843942567792e-02  1.9045419109660552e-02  1.9847334872376856e-02  2.0764811145982012e-02  2.1613318759831131e-02  2.2660875445994572e-02  2.3801646620848375e-02  2.4963366448028126e-02  2.6294086581060142e-02  2.7533053603644428e-02  2.9130592438060290e-02  3.0991856597210564e-02  3.2937060365625347e-02  3.5557564738583076e-02  3.8796119377957197e-02  4.2856059840640365e-02  4.8635754296662635e-02  5.8027250516033559e-02  5.5572173272129197e-02  5.3708079599225425e-02  5.2277741056924218e-02  5.1074950735585649e-02  5.0030101957522936e-02  4.9136014227776574e-02  4.8316671034167390e-02  4.7545894621105200e-02  4.6877482802131568e-02  4.6249968154995415e-02  4.5648689415446225e-02  4.5116883143613840e-02  4.4602628793965780e-02  4.4128805886161998e-02  4.3680945182679155e-02  4.3277888650365977e-02  4.2878785532681263e-02  4.2513984047098038e-02  4.2147201450231236e-02  4.1800210568671788e-02  4.1465035180918527e-02  4.1160178052212296e-02  4.0854543172060540e-02  4.0565188302375182e-02  4.0281922227223557e-02  4.0023358742340823e-02  3.9761985731385785e-02  3.9505451937444071e-02  3.9271856663887189e-02  3.9037588292962666e-02  3.8806377253422897e-02  3.8593218167159604e-02  3.8379507943755588e-02  3.8179235983414404e-02  3.7975620645587072e-02  3.7778359622406832e-02  3.7594555108377038e-02  3.7404858537275633e-02  3.7222529804040318e-02  3.7038469009684924e-02  3.6859127173479403e-02  3.6692604306352371e-02  3.6522110455455517e-02  3.6353506296102567e-02  3.6188000682679689e-02  3.6034197128553276e-02  3.5877896094498901e-02  3.5731986571981247e-02  3.5583338715867219e-02  3.5435702161228391e-02  3.5291059712769066e-02  3.5154259260326212e-02  3.5013756075288144e-02  3.4873187433029966e-02  3.4733358625772481e-02  3.4600868745784746e-02  3.4464957935947747e-02  3.4336561498911303e-02  3.4204479199286444e-02  3.4074136776271968e-02  3.3946560565825630e-02  3.3826040709305526e-02  3.3702387534675651e-02  3.3579685761634163e-02  3.3463305112164325e-02  3.3342566052007069e-02  3.3222778588339351e-02  3.3104022236348306e-02  3.2992413413174534e-02  3.2877711519872815e-02  3.2762215100945145e-02  3.2651517564653440e-02  3.2539028382322623e-02  3.2432033435794302e-02  3.2320961785945949e-02  3.2210942068167957e-02  3.2101479448582694e-02  3.1998461297215994e-02  3.1891492065407305e-02  3.1783819430531379e-02  3.1682392748771306e-02  3.1578548124767347e-02  3.1474248449807875e-02  3.1373572767793442e-02  3.1271381639662511e-02  3.1174097704692205e-02  3.1072143758628466e-02  3.0971444949787950e-02  3.0870466842985771e-02  3.0775265100941071e-02  3.0675648807042207e-02  3.0581158677884909e-02  3.0481826708108995e-02  3.0383872022262486e-02  3.0284997470852157e-02  3.0191975685634413e-02  3.0095187519148855e-02  3.0002751688330335e-02  2.9907880550825695e-02  2.9812223955112949e-02  2.9719979416736080e-02  2.9626759555833861e-02  2.9538388730145033e-02  2.9446088713566156e-02  2.9352611272498882e-02  2.9263413936125249e-02  2.9171672508898655e-02  2.9084234184390260e-02  2.8993479498916775e-02  2.8903334487415531e-02  2.8814961541755876e-02  2.8731412953080251e-02  2.8644397041737810e-02  2.8556623903130442e-02  2.8472869258143019e-02  2.8385955725238075e-02  2.8299199113015226e-02  2.8211422902869824e-02  2.8127984115748059e-02  2.8041310651191406e-02  2.7958547157394816e-02  2.7872393689517085e-02  2.7786781516219130e-02  2.7705330142001463e-02  2.7619767182178317e-02  2.7535013862278201e-02  2.7449602558887096e-02  2.7368656448045398e-02  2.7284195404485092e-02  2.7200616006513072e-02  2.7116033000987964e-02  2.7035505867676519e-02  2.6950973069690746e-02  2.6867937752016981e-02  2.6785050864569237e-02  2.6707531947170085e-02  2.6627066213269854e-02  2.6545923037265495e-02  2.6469306230745952e-02  2.6390231808507438e-02  2.6312090418291086e-02  2.6233813514018739e-02  2.6159772197457781e-02  2.6083065367196394e-02  2.6006077757325653e-02  2.5932432627047631e-02  2.5855885523542354e-02  2.5778896471490571e-02  2.5701955122557095e-02  2.5628998335534999e-02  2.5553540395668338e-02  2.5477336510083753e-02  2.5404301047842033e-02  2.5328812574261911e-02  2.5253226116552265e-02  2.5179642739851620e-02  2.5104319717829650e-02  2.5032895269697864e-02  2.4958160542543777e-02  2.4884923634114476e-02  2.4809764531552574e-02  2.4734975214844690e-02  2.4663196307224192e-02  2.4588268950494190e-02  2.4514645744370823e-02  2.4440925556175337e-02  2.4370607644386873e-02  2.4297659018706286e-02  2.4224836023855962e-02  2.4155054414343131e-02  2.4082661931654984e-02  2.4014127928913376e-02  2.3942353136118387e-02  2.3872889056996752e-02  2.3801492026549624e-02  2.3732510368061229e-02  2.3661600388577488e-02  2.3591433930682793e-02  2.3524794610880386e-02  2.3455397174647018e-02  2.3386733329943885e-02  2.3317873145297301e-02  2.3252345439650168e-02  2.3184124289690630e-02  2.3117111748201483e-02  2.3053494347714389e-02  2.2986431713345624e-02  2.2920412107568542e-02  2.2854064567354851e-02  2.2791325554749848e-02  2.2725724549872900e-02  2.2662270928651324e-02  2.2596534995347650e-02  2.2533378807580665e-02  2.2467283753938725e-02  2.2401534999683316e-02  2.2339153945684021e-02  2.2273798394273535e-02  2.2209021785965587e-02  2.2147809192040652e-02  2.2083612182436499e-02  2.2021274366789106e-02  2.1957226867437465e-02  2.1893727521073381e-02  2.1830135539188375e-02  2.1768901560297697e-02  2.1704707026701183e-02  2.1641377445337770e-02  2.1576792020288244e-02  2.1515181663795895e-02  2.1450446098322216e-02  2.1386733084750496e-02  2.1321889382348226e-02  2.1260214242312149e-02  2.1196351658749817e-02  2.1133564974226013e-02  2.1073977613843550e-02  2.1011307992116767e-02  2.0948268160020586e-02  2.0884958809618322e-02  2.0824991679109384e-02  2.0763078060983663e-02  2.0703980651943080e-02  2.0642639140728666e-02  2.0581787742175801e-02  2.0524111345719867e-02  2.0463752387889535e-02  2.0404498616311