<?xml version="1.0"?>
<VTKFile type="UnstructuredGrid"  version="0.1"  >
<UnstructuredGrid>
<Piece  NumberOfPoints="5023" NumberOfCells="7844">
<Points>
<DataArray  type="Float64"  NumberOfComponents="3"  format="ascii">0 0.01 0  0 0 0  0.01 0 0  0.02 0 0  0.03 0 0  0.04 0 0  0.05 0 0  0.06 0 0  0.07000000000000001 0 0  0.08 0 0  0.09 0 0  0.1 0 0  0.11 0 0  0.12 0 0  0.13 0 0  0.14 0 0  0.15 0 0  0.16 0 0  0.17 0 0  0.18 0 0  0.19 0 0  0.2 0 0  0.21 0 0  0.22 0 0  0.23 0 0  0.24 0 0  0.25 0 0  0.26 0 0  0.27 0 0  0.28 0 0  0.29 0 0  0.3 0 0  0.31 0 0  0.32 0 0  0.33 0 0  0.34 0 0  0.35 0 0  0.36 0 0  0.37 0 0  0.38 0 0  0.39 0 0  0.4 0 0  0.41 0 0  0.42 0 0  0.43 0 0  0.44 0 0  0.45 0 0  0.46 0 0  0.47 0 0  0.48 0 0  0.49 0 0  0.5 0 0  0.51 0 0  0.52 0 0  0.53 0 0  0.54 0 0  0.55 0 0  0.5600000000000001 0 0  0.57 0 0  0.58 0 0  0.59 0 0  0.6 0 0  0.61 0 0  0.62 0 0  0.63 0 0  0.64 0 0  0.65 0 0  0.66 0 0  0.67 0 0  0.68 0 0  0.6899999999999999 0 0  0.7 0 0  0.71 0 0  0.72 0 0  0.73 0 0  0.74 0 0  0.75 0 0  0.76 0 0  0.77 0 0  0.78 0 0  0.79 0 0  0.8 0 0  0.8100000000000001 0 0  0.82 0 0  0.83 0 0  0.84 0 0  0.85 0 0  0.86 0 0  0.87 0 0  0.88 0 0  0.89 0 0  0.9 0 0  0.91 0 0  0.92 0 0  0.93 0 0  0.9399999999999999 0 0  0.95 0 0  0.96 0 0  0.97 0 0  0.98 0 0  0.99 0 0  1 0 0  1.01 0 0  1.02 0 0  1.03 0 0  1.04 0 0  1.05 0 0  1.06 0 0  1.07 0 0  1.08 0 0  1.09 0 0  1.1 0 0  1.11 0 0  1.12 0 0  1.13 0 0  1.14 0 0  1.15 0 0  1.16 0 0  1.17 0 0  1.18 0 0  1.19 0 0  1.2 0 0  1.21 0 0  1.22 0 0  1.23 0 0  1.24 0 0  1.25 0 0  1.26 0 0  1.27 0 0  1.28 0 0  1.29 0 0  1.3 0 0  1.31 0 0  1.32 0 0  1.33 0 0  1.34 0 0  1.35 0 0  1.36 0 0  1.37 0 0  1.38 0 0  1.39 0 0  1.4 0 0  1.41 0 0  1.42 0 0  1.43 0 0  1.44 0 0  1.45 0 0  1.46 0 0  1.47 0 0  1.48 0 0  1.49 0 0  1.5 0 0  1.51 0 0  1.52 0 0  1.53 0 0  1.54 0 0  1.55 0 0  1.56 0 0  1.57 0 0  1.58 0 0  1.59 0 0  1.6 0 0  1.61 0 0  1.62 0 0  1.63 0 0  1.64 0 0  1.65 0 0  1.66 0 0  1.67 0 0  1.68 0 0  1.69 0 0  1.7 0 0  1.71 0 0  1.72 0 0  1.73 0 0  1.74 0 0  1.75 0 0  1.76 0 0  1.77 0 0  1.78 0 0  1.79 0 0  1.8 0 0  1.81 0 0  1.82 0 0  1.83 0 0  1.84 0 0  1.85 0 0  1.86 0 0  1.87 0 0  1.88 0 0  1.89 0 0  1.9 0 0  1.91 0 0  1.92 0 0  1.93 0 0  1.94 0 0  1.95 0 0  1.96 0 0  1.97 0 0  1.98 0 0  1.99 0 0  2 0 0  2.01 0 0  2.02 0 0  2.03 0 0  2.04 0 0  2.05 0 0  2.06 0 0  2.07 0 0  2.08 0 0  2.09 0 0  2.1 0 0  2.11 0 0  2.12 0 0  2.13 0 0  2.14 0 0  2.15 0 0  2.16 0 0  2.17 0 0  2.18 0 0  2.19 0 0  2.2 0 0  2.21 0 0  2.22 0 0  2.23 0 0  2.24 0 0  2.25 0 0  2.26 0 0  2.27 0 0  2.28 0 0  2.29 0 0  2.3 0 0  2.31 0 0  2.32 0 0  2.33 0 0  2.34 0 0  2.35 0 0  2.36 0 0  2.37 0 0  2.38 0 0  2.39 0 0  2.4 0 0  2.41 0 0  2.42 0 0  2.43 0 0  2.44 0 0  2.45 0 0  2.46 0 0  2.47 0 0  2.48 0 0  2.49 0 0  2.5 0 0  2.51 0 0  2.52 0 0  2.53 0 0  2.54 0 0  2.55 0 0  2.56 0 0  2.57 0 0  2.58 0 0  2.59 0 0  2.6 0 0  2.61 0 0  2.62 0 0  2.63 0 0  2.64 0 0  2.65 0 0  2.66 0 0  2.67 0 0  2.68 0 0  2.69 0 0  2.7 0 0  2.71 0 0  2.72 0 0  2.73 0 0  2.74 0 0  2.75 0 0  2.76 0 0  2.77 0 0  2.78 0 0  2.79 0 0  2.8 0 0  2.81 0 0  2.82 0 0  2.83 0 0  2.84 0 0  2.85 0 0  2.86 0 0  2.87 0 0  2.88 0 0  2.89 0 0  2.9 0 0  2.91 0 0  2.92 0 0  2.93 0 0  2.94 0 0  2.95 0 0  2.96 0 0  2.97 0 0  2.98 0 0  2.99 0 0  3 0 0  3.01 0 0  3.02 0 0  3.03 0 0  3.04 0 0  3.05 0 0  3.06 0 0  3.07 0 0  3.08 0 0  3.09 0 0  3.1 0 0  3.11 0 0  3.12 0 0  3.13 0 0  3.14 0 0  3.15 0 0  3.16 0 0  3.17 0 0  3.18 0 0  3.19 0 0  3.2 0 0  3.21 0 0  3.22 0 0  3.23 0 0  3.24 0 0  3.25 0 0  3.26 0 0  3.27 0 0  3.28 0 0  3.29 0 0  3.3 0 0  3.31 0 0  3.32 0 0  3.33 0 0  3.34 0 0  3.35 0 0  3.36 0 0  3.37 0 0  3.38 0 0  3.39 0 0  3.4 0 0  3.41 0 0  3.42 0 0  3.43 0 0  3.44 0 0  3.45 0 0  3.46 0 0  3.47 0 0  3.48 0 0  3.49 0 0  3.5 0 0  3.51 0 0  3.52 0 0  3.53 0 0  3.54 0 0  3.55 0 0  3.56 0 0  3.57 0 0  3.58 0 0  3.59 0 0  3.6 0 0  3.61 0 0  3.62 0 0  3.63 0 0  3.64 0 0  3.65 0 0  3.66 0 0  3.67 0 0  3.68 0 0  3.69 0 0  3.7 0 0  3.71 0 0  3.72 0 0  3.73 0 0  3.74 0 0  3.75 0 0  3.76 0 0  3.77 0 0  3.78 0 0  3.79 0 0  3.8 0 0  3.81 0 0  3.82 0 0  3.83 0 0  3.84 0 0  3.85 0 0  3.86 0 0  3.87 0 0  3.88 0 0  3.89 0 0  3.9 0 0  3.91 0 0  3.92 0 0  3.93 0 0  3.94 0 0  3.95 0 0  3.96 0 0  3.97 0 0  3.98 0 0  3.99 0 0  4 0 0  4.01 0 0  4.02 0 0  4.03 0 0  4.04 0 0  4.05 0 0  4.06 0 0  4.07 0 0  4.08 0 0  4.09 0 0  4.1 0 0  4.11 0 0  4.12 0 0  4.13 0 0  4.14 0 0  4.15 0 0  4.16 0 0  4.17 0 0  4.18 0 0  4.19 0 0  4.2 0 0  4.21 0 0  4.22 0 0  4.23 0 0  4.24 0 0  4.25 0 0  4.26 0 0  4.27 0 0  4.28 0 0  4.29 0 0  4.3 0 0  4.31 0 0  4.32 0 0  4.33 0 0  4.34 0 0  4.35 0 0  4.36 0 0  4.37 0 0  4.38 0 0  4.39 0 0  4.4 0 0  4.41 0 0  4.42 0 0  4.43 0 0  4.44 0 0  4.45 0 0  4.46 0 0  4.47 0 0  4.48 0 0  4.49 0 0  4.5 0 0  4.51 -0.06282151815625525 0  4.52 -0.1255810390586241 0  4.53 -0.1882166266370302 0  4.54 -0.2506664671286087 0  4.55 -0.3128689300804606 0  4.56 -0.3747626291714468 0  4.57 -0.4362864827930868 0  4.58 -0.49737977432971 0  4.59 -0.5579822120784577 0  4.6 -0.6180339887498927 0  4.61 -0.6774758404905846 0  4.62 -0.7362491053693565 0  4.63 -0.7942957812695606 0  4.64 -0.8515585831301434 0  4.65 -0.9079809994790955 0  4.66 -0.9635073482034314 0  4.67 -1.018082831500742 0  4.68 -1.071653589957992 0  4.69 -1.124166755704263 0  4.7 -1.175570504584947 0  4.71 -1.225814107305953 0  4.72 -1.274847979497378 0  4.73 -1.322623730647306 0  4.74 -1.369094211857378 0  4.75 -1.414213562373095 0  4.76 -1.457937254842822 0  4.77 -1.500222139260917 0  4.78 -1.541026485551579 0  4.79 -1.580310024751381 0  4.8 -1.618033988749894 0  4.81 -1.654161148549122 0  4.82 -1.688655851004031 0  4.83 -1.721484054007887 0  4.84 -1.752613360087727 0  4.85 -1.782013048376735 0  4.86 -1.80965410493204 0  4.87 -1.835509251367963 0  4.88 -1.859552971776502 0  4.89 -1.88176153790845 0  4.9 -1.902113032590308 0  4.91 -1.920587371353886 0  4.92 -1.937166322257262 0  4.93 -1.951833523877494 0  4.94 -1.964574501457378 0  4.95 -1.975376681190276 0  4.96 -1.984229402628956 0  4.97 -1.99112392920616 0  4.98 -1.996053456856543 0  4.99 -1.999013120731463 0  5 -2 0  5.01 -1.999013120731463 0  5.02 -1.996053456856543 0  5.03 -1.99112392920616 0  5.04 -1.984229402628956 0  5.05 -1.975376681190276 0  5.06 -1.964574501457378 0  5.07 -1.951833523877494 0  5.08 -1.937166322257262 0  5.09 -1.920587371353886 0  5.1 -1.902113032590308 0  5.11 -1.88176153790845 0  5.12 -1.859552971776503 0  5.13 -1.835509251367963 0  5.14 -1.80965410493204 0  5.15 -1.782013048376735 0  5.16 -1.752613360087727 0  5.17 -1.721484054007888 0  5.18 -1.688655851004031 0  5.19 -1.654161148549123 0  5.2 -1.618033988749894 0  5.21 -1.580310024751381 0  5.22 -1.54102648555158 0  5.23 -1.500222139260918 0  5.24 -1.457937254842822 0  5.25 -1.414213562373095 0  5.26 -1.369094211857378 0  5.27 -1.322623730647306 0  5.28 -1.274847979497378 0  5.29 -1.225814107305953 0  5.3 -1.175570504584947 0  5.31 -1.124166755704263 0  5.32 -1.071653589957992 0  5.33 -1.018082831500742 0  5.34 -0.9635073482034312 0  5.35 -0.9079809994790962 0  5.36 -0.8515585831301434 0  5.37 -0.7942957812695605 0  5.38 -0.7362491053693571 0  5.39 -0.6774758404905852 0  5.4 -0.6180339887498926 0  5.41 -0.5579822120784582 0  5.42 -0.4973797743297105 0  5.43 -0.4362864827930872 0  5.44 -0.3747626291714474 0  5.45 -0.3128689300804611 0  5.46 -0.2506664671286091 0  5.47 -0.1882166266370305 0  5.48 -0.1255810390586245 0  5.49 -0.06282151815625558 0  5.5 -2.449293598294706e-16 0  5.51 0 0  5.52 0 0  5.53 0 0  5.54 0 0  5.55 0 0  5.56 0 0  5.57 0 0  5.58 0 0  5.59 0 0  5.6 0 0  5.61 0 0  5.62 0 0  5.63 0 0  5.64 0 0  5.65 0 0  5.66 0 0  5.67 0 0  5.68 0 0  5.69 0 0  5.7 0 0  5.71 0 0  5.72 0 0  5.73 0 0  5.74 0 0  5.75 0 0  5.76 0 0  5.77 0 0  5.78 0 0  5.79 0 0  5.8 0 0  5.81 0 0  5.82 0 0  5.83 0 0  5.84 0 0  5.85 0 0  5.86 0 0  5.87 0 0  5.88 0 0  5.89 0 0  5.9 0 0  5.91 0 0  5.92 0 0  5.93 0 0  5.94 0 0  5.95 0 0  5.96 0 0  5.97 0 0  5.98 0 0  5.99 0 0  6 0 0  6.01 0 0  6.02 0 0  6.03 0 0  6.04 0 0  6.05 0 0  6.06 0 0  6.07 0 0  6.08 0 0  6.09 0 0  6.1 0 0  6.11 0 0  6.12 0 0  6.13 0 0  6.14 0 0  6.15 0 0  6.16 0 0  6.17 0 0  6.18 0 0  6.19 0 0  6.2 0 0  6.21 0 0  6.22 0 0  6.23 0 0  6.24 0 0  6.25 0 0  6.26 0 0  6.27 0 0  6.28 0 0  6.29 0 0  6.3 0 0  6.31 0 0  6.32 0 0  6.33 0 0  6.34 0 0  6.35 0 0  6.36 0 0  6.37 0 0  6.38 0 0  6.39 0 0  6.4 0 0  6.41 0 0  6.42 0 0  6.43 0 0  6.44 0 0  6.45 0 0  6.46 0 0  6.47 0 0  6.48 0 0  6.49 0 0  6.5 0 0  6.51 0 0  6.52 0 0  6.53 0 0  6.54 0 0  6.55 0 0  6.56 0 0  6.57 0 0  6.58 0 0  6.59 0 0  6.6 0 0  6.61 0 0  6.62 0 0  6.63 0 0  6.64 0 0  6.65 0 0  6.66 0 0  6.67 0 0  6.68 0 0  6.69 0 0  6.7 0 0  6.71 0 0  6.72 0 0  6.73 0 0  6.74 0 0  6.75 0 0  6.76 0 0  6.77 0 0  6.78 0 0  6.79 0 0  6.8 0 0  6.81 0 0  6.82 0 0  6.83 0 0  6.84 0 0  6.85 0 0  6.86 0 0  6.87 0 0  6.88 0 0  6.89 0 0  6.9 0 0  6.91 0 0  6.92 0 0  6.93 0 0  6.94 0 0  6.95 0 0  6.96 0 0  6.97 0 0  6.98 0 0  6.99 0 0  7 0 0  7.01 0 0  7.02 0 0  7.03 0 0  7.04 0 0  7.05 0 0  7.06 0 0  7.07 0 0  7.08 0 0  7.09 0 0  7.1 0 0  7.11 0 0  7.12 0 0  7.13 0 0  7.14 0 0  7.15 0 0  7.16 0 0  7.17 0 0  7.18 0 0  7.19 0 0  7.2 0 0  7.21 0 0  7.22 0 0  7.23 0 0  7.24 0 0  7.25 0 0  7.26 0 0  7.27 0 0  7.28 0 0  7.29 0 0  7.3 0 0  7.31 0 0  7.32 0 0  7.33 0 0  7.34 0 0  7.35 0 0  7.36 0 0  7.37 0 0  7.38 0 0  7.39 0 0  7.4 0 0  7.41 0 0  7.42 0 0  7.43 0 0  7.44 0 0  7.45 0 0  7.46 0 0  7.47 0 0  7.48 0 0  7.49 0 0  7.5 0 0  7.51 0 0  7.52 0 0  7.53 0 0  7.54 0 0  7.55 0 0  7.56 0 0  7.57 0 0  7.58 0 0  7.59 0 0  7.6 0 0  7.61 0 0  7.62 0 0  7.63 0 0  7.64 0 0  7.65 0 0  7.66 0 0  7.67 0 0  7.68 0 0  7.69 0 0  7.7 0 0  7.71 0 0  7.72 0 0  7.73 0 0  7.74 0 0  7.75 0 0  7.76 0 0  7.77 0 0  7.78 0 0  7.79 0 0  7.8 0 0  7.81 0 0  7.82 0 0  7.83 0 0  7.84 0 0  7.85 0 0  7.86 0 0  7.87 0 0  7.88 0 0  7.89 0 0  7.9 0 0  7.91 0 0  7.92 0 0  7.93 0 0  7.94 0 0  7.95 0 0  7.96 0 0  7.97 0 0  7.98 0 0  7.99 0 0  8 0 0  8.01 0 0  8.02 0 0  8.029999999999999 0 0  8.039999999999999 0 0  8.0500000
[...]
<PointData  Scalars="f_2563"> 
<DataArray  type="Float64"  Name="f_2563"  format="ascii">9.9999999999999989e-01  1.0000000000000000e+00  9.9738183203009168e-01  9.9543649317768268e-01  9.9376546136482291e-01  9.9229258635383610e-01  9.9101667759821255e-01  9.8984352470607717e-01  9.8875864957840176e-01  9.8775243192019002e-01  9.8682388819407241e-01  9.8594423457404301e-01  9.8511405639130034e-01  9.8432337555877258e-01  9.8356905568558262e-01  9.8285013673037325e-01  9.8216590646607538e-01  9.8150389182503006e-01  9.8086306997319173e-01  9.8024510704048651e-01  9.7964941559992236e-01  9.7907250940182922e-01  9.7851476930392844e-01  9.7797679931470871e-01  9.7745815970225625e-01  9.7694804564853210e-01  9.7645340467046604e-01  9.7597379141397678e-01  9.7550489889951753e-01  9.7504611620086723e-01  9.7459866468617162e-01  9.7416213177633115e-01  9.7373431709941893e-01  9.7331488392233934e-01  9.7290498035670891e-01  9.7250421646911600e-01  9.7210703397182463e-01  9.7171907355677045e-01  9.7133912266553901e-01  9.7096686676941324e-01  9.7060108837300385e-01  9.7024154616708225e-01  9.6988787323918546e-01  9.6953779888472902e-01  9.6919116810371930e-01  9.6884958462306980e-01  9.6851272444949910e-01  9.6818063440376612e-01  9.6785388248028914e-01  9.6753233586365173e-01  9.6721586163906370e-01  9.6690513229141772e-01  9.6659987288565785e-01  9.6629666607378351e-01  9.6599768271047348e-01  9.6570200286892616e-01  9.6541045206910348e-01  9.6512277422382031e-01  9.6483768019394434e-01  9.6455506897786136e-01  9.6427660752767308e-01  9.6400201970786070e-01  9.6373034586163175e-01  9.6346148974035606e-01  9.6319586852923889e-01  9.6293325774164784e-01  9.6267157709135243e-01  9.6241279174862471e-01  9.6215664501115084e-01  9.6190253013016047e-01  9.6165053255569843e-01  9.6140120800054241e-01  9.6115433894606883e-01  9.6090958086895195e-01  9.6066721963884871e-01  9.6042664743165596e-01  9.6018780633366563e-01  9.5995120901251885e-01  9.5971625691853257e-01  9.5948382574491875e-01  9.5925368950507717e-01  9.5902513984056914e-01  9.5879857561650272e-01  9.5857266089914772e-01  9.5834889466217887e-01  9.5812707083532767e-01  9.5790720691327602e-01  9.5768930551543896e-01  9.5747375317876438e-01  9.5725996200263996e-01  9.5704823519409632e-01  9.5683836419034285e-01  9.5662967597084636e-01  9.5642250249375949e-01  9.5621574097966788e-01  9.5601060940309557e-01  9.5580691641166993e-01  9.5560422006027512e-01  9.5540246806311702e-01  9.5520213566659040e-01  9.5500303968101996e-01  9.5480411676706989e-01  9.5460632052093708e-01  9.5440907105457040e-01  9.5421293057835155e-01  9.5401773229314568e-01  9.5382289632691175e-01  9.5362844928471002e-01  9.5343521103083195e-01  9.5324300247147753e-01  9.5305097448566678e-01  9.5286022757624700e-01  9.5267019167522415e-01  9.5248126389785048e-01  9.5229328347287900e-01  9.5210547737766538e-01  9.5191881863850991e-01  9.5173312864322224e-01  9.5154793567496954e-01  9.5136337723873587e-01  9.5118013300973414e-01  9.5099768184410249e-01  9.5081599826716046e-01  9.5063489420886360e-01  9.5045431994969687e-01  9.5027432792519639e-01  9.5009476092787848e-01  9.4991593393611673e-01  9.4973725912104912e-01  9.4955986013786631e-01  9.4938331984029289e-01  9.4920820547443840e-01  9.4903433949776861e-01  9.4886127086344352e-01  9.4868925445892394e-01  9.4851733706691110e-01  9.4834625303187092e-01  9.4817553742649552e-01  9.4800562451007309e-01  9.4783635287990642e-01  9.4766755531460667e-01  9.4749945469370556e-01  9.4733186554654858e-01  9.4716480246613322e-01  9.4699868215122907e-01  9.4683336612802027e-01  9.4666805767715456e-01  9.4650344057217373e-01  9.4633908922718801e-01  9.4617539334991507e-01  9.4601219141640891e-01  9.4584914957646893e-01  9.4568615172883297e-01  9.4552363202032907e-01  9.4536145159206708e-01  9.4519933075488405e-01  9.4503756248153903e-01  9.4487567033116771e-01  9.4471442436153197e-01  9.4455368387441974e-01  9.4439324831147142e-01  9.4423314831300764e-01  9.4407373395230032e-01  9.4391487261904916e-01  9.4375601981632884e-01  9.4359791291132911e-01  9.4344018028058729e-01  9.4328325616103914e-01  9.4312698121830985e-01  9.4297128310298239e-01  9.4281611488870987e-01  9.4266155738201796e-01  9.4250744764288830e-01  9.4235345571445439e-01  9.4220020523780679e-01  9.4204755809914609e-01  9.4189516446633514e-01  9.4174299739095835e-01  9.4159148901371692e-01  9.4144049955910913e-01  9.4128942751195277e-01  9.4113887727995793e-01  9.4098844174318441e-01  9.4083828434360617e-01  9.4068825512052301e-01  9.4053775571479969e-01  9.4038762495298100e-01  9.4023773223072415e-01  9.4008798005343219e-01  9.3993854944550737e-01  9.3978915681453068e-01  9.3963981171804700e-01  9.3949082284201979e-01  9.3934203588695742e-01  9.3919295871093922e-01  9.3904431547105949e-01  9.3889597928873247e-01  9.3874783635908576e-01  9.3860013973257062e-01  9.3845241218883346e-01  9.3830535506142365e-01  9.3815883300120506e-01  9.3801223665738187e-01  9.3786549336005476e-01  9.3771880270955787e-01  9.3757201635975496e-01  9.3742480500251890e-01  9.3727810477973117e-01  9.3713178999728086e-01  9.3698581353478994e-01  9.3684038586367269e-01  9.3669519745257979e-01  9.3655020826360802e-01  9.3640560077492341e-01  9.3626099590214096e-01  9.3611666867177479e-01  9.3597248228951724e-01  9.3582836339628650e-01  9.3568450234216494e-01  9.3554077660609636e-01  9.3539719791847697e-01  9.3525402958699233e-01  9.3511092777601967e-01  9.3496793726278993e-01  9.3482490672565310e-01  9.3468142570212631e-01  9.3453796707043679e-01  9.3439440865973533e-01  9.3425065504682414e-01  9.3410685080570666e-01  9.3396367498761490e-01  9.3382098695808879e-01  9.3367806957622068e-01  9.3353582313927430e-01  9.3339413161440499e-01  9.3325233219258308e-01  9.3311093269378653e-01  9.3296955456571318e-01  9.3282847501995370e-01  9.3268755955675131e-01  9.3254660617184093e-01  9.3240560189473010e-01  9.3226491464639083e-01  9.3212440634944516e-01  9.3198343660761618e-01  9.3184278258695896e-01  9.3170232476209147e-01  9.3156189616495533e-01  9.3142150334758356e-01  9.3128161008404187e-01  9.3114183223844293e-01  9.3100244410423583e-01  9.3086331703439396e-01  9.3072403445599816e-01  9.3058452105773126e-01  9.3044474534538257e-01  9.3030456570481235e-01  9.3016375408624130e-01  9.3002328639306131e-01  9.2988304211357597e-01  9.2974307303435888e-01  9.2960358320208314e-01  9.2946426081213473e-01  9.2932505826322187e-01  9.2918613579433762e-01  9.2904737800847548e-01  9.2890841744343533e-01  9.2876971130861241e-01  9.2863113498576810e-01  9.2849263448252695e-01  9.2835423989389154e-01  9.2821621562456946e-01  9.2807843777928922e-01  9.2794045418902504e-01  9.2780278061952404e-01  9.2766531080824643e-01  9.2752765722425967e-01  9.2739046290933425e-01  9.2725361688842833e-01  9.2711639685979685e-01  9.2697965965082119e-01  9.2684327313362391e-01  9.2670682317604036e-01  9.2657026407289489e-01  9.2643395687485297e-01  9.2629778603305168e-01  9.2616134069489386e-01  9.2602501619726574e-01  9.2588866910993528e-01  9.2575233440726845e-01  9.2561616532967939e-01  9.2547994880517992e-01  9.2534372721411851e-01  9.2520786944021904e-01  9.2507224218239981e-01  9.2493620650530572e-01  9.2480054209260854e-01  9.2466513372339154e-01  9.2452980242896865e-01  9.2439453049959797e-01  9.2425963451812032e-01  9.2412474392484512e-01  9.2399007340870076e-01  9.2385549853810123e-01  9.2372062050309567e-01  9.2358537393759021e-01  9.2344972793888802e-01  9.2331354497224261e-01  9.2317664441399272e-01  9.2303992924238221e-01  9.2290328200734773e-01  9.2276676879466701e-01  9.2263058826156574e-01  9.2249448038155302e-01  9.2235841138376695e-01  9.2222254841351103e-01  9.2208677853776799e-01  9.2195077604610221e-01  9.2181497145081270e-01  9.2167924268803625e-01  9.2154354484803080e-01  9.2140790705319664e-01  9.2127258014271751e-01  9.2113744258961605e-01  9.2100207100568965e-01  9.2086694605508224e-01  9.2073168008334216e-01  9.2059669436803815e-01  9.2046187383171418e-01  9.2032693899506457e-01  9.2019193495396556e-01  9.2005731547153613e-01  9.1992294978331679e-01  9.1978814796367669e-01  9.1965367891669014e-01  9.1951920724974967e-01  9.1938480598939198e-01  9.1925033391000222e-01  9.1911552379552486e-01  9.1898089040969921e-01  9.1884631430703523e-01  9.1871157485508448e-01  9.1857670843982864e-01  9.1844206140109363e-01  9.1830749531936162e-01  9.1817257476327518e-01  9.1803792123756878e-01  9.1790320136589920e-01  9.1776846046437266e-01  9.1763355906872768e-01  9.1749817914660248e-01  9.1736283847320910e-01  9.1722740925619295e-01  9.1709162374830677e-01  9.1695578825194357e-01  9.1681979223840304e-01  9.1668330976036982e-01  9.1654673139004539e-01  9.1640995160798655e-01  9.1627275412709497e-01  9.1613552223093186e-01  9.1599813303984756e-01  9.1586049490208932e-01  9.1572261504276076e-01  9.1558476654457299e-01  9.1544662109620556e-01  9.1530850585347412e-01  9.1517028493763553e-01  9.1503165153760235e-01  9.1489276190687474e-01  9.1475341901860374e-01  9.1461387800231075e-01  9.1447400858279948e-01  9.1433390749098453e-01  9.1419352575657165e-01  9.1405313324712179e-01  9.1391260983527178e-01  9.1377171078909303e-01  9.1363066001694782e-01  9.1348912245522373e-01  9.1334723113757943e-01  9.1320484102853205e-01  9.1306166764761865e-01  9.1291760917532483e-01  9.1277256406155804e-01  9.1262638324613377e-01  9.1247890045499402e-01  9.1233057163460463e-01  9.1218095199729010e-01  9.1203032839640541e-01  9.1187856974843018e-01  9.1172519031866683e-01  9.1157025311981943e-01  9.1141383495817208e-01  9.1125578046592559e-01  9.1109589785944778e-01  9.1093427300763385e-01  9.1077032312474737e-01  9.1060384948927908e-01  9.1043478909187436e-01  9.1026297710817505e-01  9.1008927991653932e-01  9.0991226853260732e-01  9.0973177899336288e-01  9.0954879333973226e-01  9.0936199454285505e-01  9.0917122113163318e-01  9.0897608132735896e-01  9.0877635551967351e-01  9.0857173627292132e-01  9.0836194237291357e-01  9.0814632195070100e-01  9.0792464572354836e-01  9.0769771085487083e-01  9.0746393803955872e-01  9.0722308166801713e-01  9.0697534413687131e-01  9.0671914474115567e-01  9.0645425372027844e-01  9.0617967870565996e-01  9.0589573723403582e-01  9.0560039053448904e-01  9.0529331984682704e-01  9.0497449293441268e-01  9.0464334764522913e-01  9.0429854947037891e-01  9.0393975754151257e-01  9.0356173561034270e-01  9.0316284417383863e-01  9.0274027521853883e-01  9.0229361359371174e-01  9.0183120768823988e-01  9.0134205086147379e-01  9.0082558778102306e-01  9.0027567831176480e-01  8.9969175226703102e-01  8.9906994962139930e-01  8.9840639966541125e-01  8.9769560268649040e-01  8.9693594542937816e-01  8.9611169150599435e-01  8.9522194515508990e-01  8.9425363794100199e-01  8.9320582149154626e-01  8.9204905328568052e-01  8.9078437261519516e-01  8.8934886147726422e-01  8.8770391012647842e-01  8.8565666280963096e-01  8.8320453569485680e-01  8.8020234203468350e-01  8.7572209423113168e-01  8.5053769407381863e-01  8.2927124726187729e-01  8.0977008966238551e-01  7.9141080272618847e-01  7.7411655426331039e-01  7.5774222694260762e-01  7.4220854939048431e-01  7.2746243626320661e-01  7.1343768414974007e-01  7.0014781518176672e-01  6.8740048421437339e-01  6.7526629791114046e-01  6.6364597716932505e-01  6.5252460795849798e-01  6.4193782104163566e-01  6.3188061571791820e-01  6.2226386659704591e-01  6.1312279063373754e-01  6.0440190284889950e-01  5.9610159365442639e-01  5.8825287759677036e-01  5.8087952070867155e-01  5.7389769698395621e-01  5.6734227062534492e-01  5.6117424126187243e-01  5.5544057899891019e-01  5.5007024607727895e-01  5.4506110444611400e-01  5.4041098403039733e-01  5.3616449342447758e-01  5.3225100161077743e-01  5.2862021650221369e-01  5.2533535341001636e-01  5.2234780300454564e-01  5.1969106128785703e-01  5.1729286269828845e-01  5.1517158593715051e-01  5.1328619935565389e-01  5.1166617799860548e-01  5.1024559086948817e-01  5.0905416549593940e-01  5.0802810205746207e-01  5.0716822237421733e-01  5.0648625692375482e-01  5.0596521840734798e-01  5.0554965309734690e-01  5.0525271851952669e-01  5.0505767376229982e-01  5.0495050009849585e-01  5.0491206353506835e-01  5.0495047004549198e-01  5.0506555725381252e-01  5.0525337123987357e-01  5.0554523504967741e-01  5.0594871167000699e-01  5.0648520883640824e-01  5.0717185517537922e-01  5.0803081298636599e-01  5.0905604093929990e-01  5.1024696930587166e-01  5.1166746711589317e-01  5.1328752016382106e-01  5.1517307113897037e-01  5.1729452214851257e-01  5.1969285421979261e-01  5.2234890366933662e-01  5.2533479897749180e-01  5.2861495670462288e-01  5.3221601152060549e-01  5.3612613433905576e-01  5.4041885291088643e-01  5.4504095664471564e-01  5.5005759898342621e-01  5.5540835843128511e-01  5.6113069505860513e-01  5.6728892265831510e-01  5.7381905493035767e-01  5.8078044758958491e-01  5.8812575196680272e-01  5.9593827926590770e-01  6.0417025827318860e-01  6.1282782698777949e-01  6.2187770677064269e-01  6.3136106559615279e-01  6.4119174554675185e-01  6.5149791274555591e-01  6.6221632694236499e-01  6.7330135091122123e-01  6.8470439400012229e-01  6.9637872122518463e-01  7.0836845605823962e-01  7.2057864199471844e-01  7.3304060400617665e-01  7.4561800667454670e-01  7.5829201554061043e-01  7.7113316577215218e-01  7.8419633836749769e-01  7.9761004288911275e-01  8.1200531089537009e-01  8.2921741036085950e-01  8.3188758718462674e-01  8.3393743363896522e-01  8.3536736893118613e-01  8.3655729542915258e-01  8.3754512174230400e-01  8.3844516356903998e-01  8.3924126755864192e-01  8.3993400238615268e-01  8.4058600021008367e-01  8.4118013256365054e-01  8.4171690858563020e-01  8.4221386135623288e-01  8.4267510341481844e-01  8.4310951396341571e-01  8.4351750288642224e-01  8.4390383344122799e-01  8.4426820686678927e-01  8.4461286942258507e-01  8.4493827531700816e-01  8.4524552245388263e-01  8.4553490479077409e-01  8.4581047069032111e-01  8.4607174091923043e-01  8.4631924697530114e-01  8.4655257004672702e-01  8.4677810738914683e-01  8.4699078337417311e-01  8.4719079786081253e-01  8.4738176840303725e-01  8.4756363631800080e-01  8.4773615459024054e-01  8.4789946494654955e-01  8.4805599130958365e-01  8.4820606591019421e-01  8.4834831679726630e-01  8.4848287289890201e-01  8.4861097545338571e-01  8.4873286861405906e-01  8.4884838843615906e-01  8.4895764327327106e-01  8.4906362181636630e-01  8.4916354233360836e-01  8.4925748325064310e-01  8.4934597877726969e-01  8.4942927763703158e-01  8.4950730949046860e-01  8.4958014133483928e-01  8.4964820523299556e-01  8.4971142517897802e-01  8.4977077323962513e-01  8.4982657582100896e-01  8.4987875202849250e-01  8.4992735197425617e-01  8.4997347242628529e-01  8.5001563473940644e-01  8.5005395818210838e-01  8.5008839785750112e-01  8.5011897925441182e-01  8.5014636350406148e-01  8.5017060415662227e-01  8.5019165513700412e-01  8.5020953045193848e-01  8.5022566471523242e-01  8.5023877072523435e-01  8.5024885737078959e-01  8.5025618553804483e-01  8.5026077404150024e-01  8.5026256061344230e-01  8.5026154415704946e-01  8.5025897994871513e-01  8.5025400086385383e-01  8.5024659992577178e-01  8.5023757094968411e-01  8.5022596672079787e-01  8.5021177476576926e-01  8.5019612040042014e-01  8.5017816929865353e-01  8.5015790227145738e-01  8.5013589917924071e-01  8.5011211847230095e-01  8.5008658541907089e-01  8.5005927638125423e-01  8.5003049969925781e-01  8.5000006249327265e-01  8.4996793159054396e-01  8.4993412699803672e-01  8.4989859313407701e-01  8.4986137932192052e-01  8.4982263485999854e-01  8.4978236997601075e-01  8.4974054343732885e-01  8.4969756177052413e-01  8.4965316609463681e-01  8.4960731704742265e-01  8.4956004106102656e-01  8.4951139345929416e-01  8.4946152355037063e-01  8.4941038425597004e-01  8.4935796330951452e-01  8.4930430556228553e-01  8.4924937810151102e-01  8.4919325311057503e-01  8.4913606796175856e-01  8.4907776408931801e-01  8.4901844929952797e-01  8.4895812861733866e-01  8.4889662405293953e-01  8.4883415738034984e-01  8.4877067381743310e-01  8.4870625136063904e-01  8.4864089122005260e-01  8.4857466228815714e-01  8.4850750830680022e-01  8.4843968992154806e-01  8.4837102076889925e-01  8.4830143791752477e-01  8.4823097464337838e-01  8.4815963752284218e-01  8.4808751941525407e-01  8.4801455433237982e-01  8.4794095409384407e-01  8.4786670667565245e-01  8.4779161509045442e-01  8.4771581249282779e-01  8.4763923130087626e-01  8.4756184703456483e-01  8.4748372588834797e-01  8.4740499823060944e-01  8.4732558541877778e-01  8.4724540892187328e-01  8.4716460821604256e-01  8.4708311448234219e-01  8.4700100904204956e-01  8.4691836876484894e-01  8.4683501075965761e-01  8.4675101285805021e-01  8.4666629313179509e-01  8.4658084884912788e-01  8.4649471569496426e-01  8.4640810635207553e-01  8.4632081513755952e-01  8.4623294950107320e-01  8.4614441792233586e-01  8.4605531315692195e-01  8.4596562505866935e-01  8.4587557629376808e-01  8.4578507501215827e-01  8.4569409659019446e-01  8.4560270914526814e-01  8.4551082823987556e-01  8.4541851079260422e-01  8.4532557814704956e-01  8.4523230628774915e-01  8.4513860374490424e-01  8.4504426971200441e-01  8.4494972204875796e-01  8.4485468472047920e-01  8.4475943025629918e-01  8.4466387654378516e-01  8.4456786618297319e-01  8.4447145236329491e-01  8.4437481990471586e-01  8.4427787423064138e-01  8.4418032413761734e-01  8.4408251109977672e-01  8.4398435211596801e-01  8.4388570780196570e-01  8.4378657129349444e-01  8.4368716933466581e-01  8.4358720663211029e-01  8.4348686714239551e-01  8.4338606319268894e-01  8.4328455470943586e-01  8.4318262558064494e-01  8.4308017363396182e-01  8.4297721642998524e-01  8.4287388799885277e-01  8.4277015296707414e-01  8.4266624463121254e-01  8.4256192654958284e-01  8.4245750142587839e-01  8.4235286275083032e-01  8.4224802206951588e-01  8.4214296483434237e-01  8.4203786615355647e-01  8.4193247809653682e-01  8.4182700974240932e-01  8.4172135144928617e-01  8.4161557313203872e-01  8.4150965664595023e-01  8.4140375835049064e-01  8.4129777049961962e-01  8.4119162353832011e-01  8.4108540156490419e-01  8.4097888940862109e-01  8.4087231820744746e-01  8.4076559881869295e-01  8.4065860031455308e-01  8.4055133268492710e-01  8.4044397659335235e-01  8.4033643799234492e-01  8.4022849104833131e-01  8.4012039420068840e-01  8.4001206512965132e-01  8.3990328522159663e-01  8.3979435544258108e-01  8.3968503077886358e-01  8.3957555400803363e-01  8.3946581632483597e-01  8.3935577263796868e-01  8.3924534183271926e-01  8.3913481010522550e-01  8.3902408217992919e-01  8.3891297334738879e-01  8.3880192396551356e-01  8.3869081840223081e-01  8.3857965981619020e-01  8.3846862455159288e-01  8.3835739300890622e-01  8.3824628337905793e-01  8.3813503473745277e-01  8.3802387021071767e-01  8.3791267656332802e-01  8.3780135506616671e-01  8.3769001735629212e-01  8.3757853905171753e-01  8.3746691360789727e-01  8.3735536888859696e-01  8.3724379542249816e-01  8.3713197475223455e-01  8.3702004537331143e-01  8.3690783203066066e-01  8.3679567527801635e-01  8.3668347230255136e-01  8.3657103728551963e-01  8.3645834433822719e-01  8.3634564551735369e-01  8.3623283745236776e-01  8.3611980440425882e-01  8.3600649344940736e-01  8.3589314331492204e-01  8.3577963848212622e-01  8.3566593929914890e-01  8.3555202005099083e-01  8.3543801924132199e-01  8.3532381904473263e-01  8.3520922786076479e-01  8.3509470637648564e-01  8.3498013827853901e-01  8.3486514594351269e-01  8.3475023587581576e-01  8.3463530927485241e-01  8.3452019475751849e-01  8.3440505102444384e-01  8.3428937953271165e-01  8.3417344057646670e-01  8.3405711668342242e-01  8.3394036409479377e-01  8.3382319715028796e-01  8.3370620392561845e-01  8.3358906195618210e-01  8.3347211871283067e-01  8.3335526625674428e-01  8.3323825647023952e-01  8.3312101300569597e-01  8.3300373700731334e-01  8.3288632850299105e-01  8.3276836797344889e-01  8.3265028227466575e-01  8.3253195337460717e-01  8.3241320063709157e-01  8.3229396202036310e-01  8.3217453647678130e-01  8.3205481894568356e-01  8.3193469793694419e-01  8.3181431311957676e-01  8.3169348697656353e-01  8.3157217750200