<?xml version="1.0"?>
<VTKFile type="UnstructuredGrid"  version="0.1"  >
<UnstructuredGrid>
<Piece  NumberOfPoints="5020" NumberOfCells="7838">
<Points>
<DataArray  type="Float64"  NumberOfComponents="3"  format="ascii">0 0.01 0  0 0 0  0.01 0 0  0.02 0 0  0.03 0 0  0.04 0 0  0.05 0 0  0.06 0 0  0.07000000000000001 0 0  0.08 0 0  0.09 0 0  0.1 0 0  0.11 0 0  0.12 0 0  0.13 0 0  0.14 0 0  0.15 0 0  0.16 0 0  0.17 0 0  0.18 0 0  0.19 0 0  0.2 0 0  0.21 0 0  0.22 0 0  0.23 0 0  0.24 0 0  0.25 0 0  0.26 0 0  0.27 0 0  0.28 0 0  0.29 0 0  0.3 0 0  0.31 0 0  0.32 0 0  0.33 0 0  0.34 0 0  0.35 0 0  0.36 0 0  0.37 0 0  0.38 0 0  0.39 0 0  0.4 0 0  0.41 0 0  0.42 0 0  0.43 0 0  0.44 0 0  0.45 0 0  0.46 0 0  0.47 0 0  0.48 0 0  0.49 0 0  0.5 0 0  0.51 0 0  0.52 0 0  0.53 0 0  0.54 0 0  0.55 0 0  0.5600000000000001 0 0  0.57 0 0  0.58 0 0  0.59 0 0  0.6 0 0  0.61 0 0  0.62 0 0  0.63 0 0  0.64 0 0  0.65 0 0  0.66 0 0  0.67 0 0  0.68 0 0  0.6899999999999999 0 0  0.7 0 0  0.71 0 0  0.72 0 0  0.73 0 0  0.74 0 0  0.75 0 0  0.76 0 0  0.77 0 0  0.78 0 0  0.79 0 0  0.8 0 0  0.8100000000000001 0 0  0.82 0 0  0.83 0 0  0.84 0 0  0.85 0 0  0.86 0 0  0.87 0 0  0.88 0 0  0.89 0 0  0.9 0 0  0.91 0 0  0.92 0 0  0.93 0 0  0.9399999999999999 0 0  0.95 0 0  0.96 0 0  0.97 0 0  0.98 0 0  0.99 0 0  1 0 0  1.01 0 0  1.02 0 0  1.03 0 0  1.04 0 0  1.05 0 0  1.06 0 0  1.07 0 0  1.08 0 0  1.09 0 0  1.1 0 0  1.11 0 0  1.12 0 0  1.13 0 0  1.14 0 0  1.15 0 0  1.16 0 0  1.17 0 0  1.18 0 0  1.19 0 0  1.2 0 0  1.21 0 0  1.22 0 0  1.23 0 0  1.24 0 0  1.25 0 0  1.26 0 0  1.27 0 0  1.28 0 0  1.29 0 0  1.3 0 0  1.31 0 0  1.32 0 0  1.33 0 0  1.34 0 0  1.35 0 0  1.36 0 0  1.37 0 0  1.38 0 0  1.39 0 0  1.4 0 0  1.41 0 0  1.42 0 0  1.43 0 0  1.44 0 0  1.45 0 0  1.46 0 0  1.47 0 0  1.48 0 0  1.49 0 0  1.5 0 0  1.51 0 0  1.52 0 0  1.53 0 0  1.54 0 0  1.55 0 0  1.56 0 0  1.57 0 0  1.58 0 0  1.59 0 0  1.6 0 0  1.61 0 0  1.62 0 0  1.63 0 0  1.64 0 0  1.65 0 0  1.66 0 0  1.67 0 0  1.68 0 0  1.69 0 0  1.7 0 0  1.71 0 0  1.72 0 0  1.73 0 0  1.74 0 0  1.75 0 0  1.76 0 0  1.77 0 0  1.78 0 0  1.79 0 0  1.8 0 0  1.81 0 0  1.82 0 0  1.83 0 0  1.84 0 0  1.85 0 0  1.86 0 0  1.87 0 0  1.88 0 0  1.89 0 0  1.9 0 0  1.91 0 0  1.92 0 0  1.93 0 0  1.94 0 0  1.95 0 0  1.96 0 0  1.97 0 0  1.98 0 0  1.99 0 0  2 0 0  2.01 0 0  2.02 0 0  2.03 0 0  2.04 0 0  2.05 0 0  2.06 0 0  2.07 0 0  2.08 0 0  2.09 0 0  2.1 0 0  2.11 0 0  2.12 0 0  2.13 0 0  2.14 0 0  2.15 0 0  2.16 0 0  2.17 0 0  2.18 0 0  2.19 0 0  2.2 0 0  2.21 0 0  2.22 0 0  2.23 0 0  2.24 0 0  2.25 0 0  2.26 0 0  2.27 0 0  2.28 0 0  2.29 0 0  2.3 0 0  2.31 0 0  2.32 0 0  2.33 0 0  2.34 0 0  2.35 0 0  2.36 0 0  2.37 0 0  2.38 0 0  2.39 0 0  2.4 0 0  2.41 0 0  2.42 0 0  2.43 0 0  2.44 0 0  2.45 0 0  2.46 0 0  2.47 0 0  2.48 0 0  2.49 0 0  2.5 0 0  2.51 0 0  2.52 0 0  2.53 0 0  2.54 0 0  2.55 0 0  2.56 0 0  2.57 0 0  2.58 0 0  2.59 0 0  2.6 0 0  2.61 0 0  2.62 0 0  2.63 0 0  2.64 0 0  2.65 0 0  2.66 0 0  2.67 0 0  2.68 0 0  2.69 0 0  2.7 0 0  2.71 0 0  2.72 0 0  2.73 0 0  2.74 0 0  2.75 0 0  2.76 0 0  2.77 0 0  2.78 0 0  2.79 0 0  2.8 0 0  2.81 0 0  2.82 0 0  2.83 0 0  2.84 0 0  2.85 0 0  2.86 0 0  2.87 0 0  2.88 0 0  2.89 0 0  2.9 0 0  2.91 0 0  2.92 0 0  2.93 0 0  2.94 0 0  2.95 0 0  2.96 0 0  2.97 0 0  2.98 0 0  2.99 0 0  3 0 0  3.01 0 0  3.02 0 0  3.03 0 0  3.04 0 0  3.05 0 0  3.06 0 0  3.07 0 0  3.08 0 0  3.09 0 0  3.1 0 0  3.11 0 0  3.12 0 0  3.13 0 0  3.14 0 0  3.15 0 0  3.16 0 0  3.17 0 0  3.18 0 0  3.19 0 0  3.2 0 0  3.21 0 0  3.22 0 0  3.23 0 0  3.24 0 0  3.25 0 0  3.26 0 0  3.27 0 0  3.28 0 0  3.29 0 0  3.3 0 0  3.31 0 0  3.32 0 0  3.33 0 0  3.34 0 0  3.35 0 0  3.36 0 0  3.37 0 0  3.38 0 0  3.39 0 0  3.4 0 0  3.41 0 0  3.42 0 0  3.43 0 0  3.44 0 0  3.45 0 0  3.46 0 0  3.47 0 0  3.48 0 0  3.49 0 0  3.5 0 0  3.51 0 0  3.52 0 0  3.53 0 0  3.54 0 0  3.55 0 0  3.56 0 0  3.57 0 0  3.58 0 0  3.59 0 0  3.6 0 0  3.61 0 0  3.62 0 0  3.63 0 0  3.64 0 0  3.65 0 0  3.66 0 0  3.67 0 0  3.68 0 0  3.69 0 0  3.7 0 0  3.71 0 0  3.72 0 0  3.73 0 0  3.74 0 0  3.75 0 0  3.76 0 0  3.77 0 0  3.78 0 0  3.79 0 0  3.8 0 0  3.81 0 0  3.82 0 0  3.83 0 0  3.84 0 0  3.85 0 0  3.86 0 0  3.87 0 0  3.88 0 0  3.89 0 0  3.9 0 0  3.91 0 0  3.92 0 0  3.93 0 0  3.94 0 0  3.95 0 0  3.96 0 0  3.97 0 0  3.98 0 0  3.99 0 0  4 0 0  4.01 -0.007853658655910169 0  4.02 -0.01570537953906381 0  4.03 -0.02355322535482153 0  4.04 -0.03139525976465671 0  4.05 -0.03922954786392233 0  4.06 -0.04705415665925685 0  4.07 -0.05486715554552286 0  4.08 -0.06266661678215218 0  4.09 -0.07045061596879122 0  4.1 -0.07821723252011516 0  4.11 -0.08596455013970501 0  4.12 -0.09369065729286238 0  4.13 -0.1013936476782562 0  4.14 -0.109071620698271 0  4.15 -0.116722681927953 0  4.16 -0.1243449435824275 0  4.17 -0.1319365249826864 0  4.18 -0.1394955530196144 0  4.19 -0.1470201626161523 0  4.2 -0.1545084971874738 0  4.21 -0.1619587090990747 0  4.22 -0.1693689601226455 0  4.23 -0.1767374218896289 0  4.24 -0.1840622763423391 0  4.25 -0.1913417161825449 0  4.26 -0.1985739453173901 0  4.27 -0.2057571793025541 0  4.28 -0.2128896457825365 0  4.29 -0.2199695849279576 0  4.3 -0.2269952498697733 0  4.31 -0.2339649071302864 0  4.32 -0.2408768370508579 0  4.33 -0.2477293342162038 0  4.34 -0.2545207078751855 0  4.35 -0.2612492823579742 0  4.36 -0.2679133974894985 0  4.37 -0.274511408999066 0  4.38 -0.2810416889260652 0  4.39 -0.2875026260216391 0  4.4 -0.2938926261462368 0  4.41 -0.3002101126629421 0  4.42 -0.3064535268264882 0  4.43 -0.3126213281678524 0  4.44 -0.3187119948743451 0  4.45 -0.3247240241650919 0  4.46 -0.3306559326618259 0  4.47 -0.3365062567548865 0  4.48 -0.3422735529643445 0  4.49 -0.3479563982961573 0  4.5 -0.3535533905932737 0  4.51 -0.3590631488815943 0  4.52 -0.3644843137107056 0  4.53 -0.369815547489305 0  4.54 -0.3750555348152298 0  4.55 -0.3802029828000154 0  4.56 -0.3852566213878944 0  4.57 -0.390215203669165 0  4.58 -0.3950775061878452 0  4.59 -0.3998423292435452 0  4.6 -0.4045084971874736 0  4.61 -0.4090748587125118 0  4.62 -0.413540287137281 0  4.63 -0.4179036806841351 0  4.64 -0.4221639627510074 0  4.65 -0.4263200821770463 0  4.66 -0.4303710135019718 0  4.67 -0.4343157572190955 0  4.68 -0.4381533400219317 0  4.69 -0.4418828150443468 0  4.7 -0.4455032620941839 0  4.71 -0.4490137878803078 0  4.72 -0.4524135262330097 0  4.73 -0.4557016383177228 0  4.74 -0.4588773128419906 0  4.75 -0.4619397662556434 0  4.76 -0.4648882429441256 0  4.77 -0.4677220154149335 0  4.78 -0.4704403844771128 0  4.79 -0.4730426794137726 0  4.8 -0.4755282581475768 0  4.81 -0.477896507399165 0  4.82 -0.4801468428384716 0  4.83 -0.482278709228899 0  4.84 -0.4842915805643155 0  4.85 -0.4861849601988382 0  4.86 -0.4879583809693738 0  4.87 -0.4896114053108829 0  4.88 -0.4911436253643443 0  4.89 -0.4925546630773869 0  4.9 -0.4938441702975689 0  4.91 -0.4950118288582788 0  4.92 -0.4960573506572389 0  4.93 -0.4969804777275898 0  4.94 -0.4977809823015401 0  4.95 -0.498458666866564 0  4.96 -0.4990133642141358 0  4.97 -0.499444937480985 0  4.98 -0.4997532801828658 0  4.99 -0.4999383162408303 0  5 -0.5 0  5.01 -0.4999383162408303 0  5.02 -0.4997532801828658 0  5.03 -0.499444937480985 0  5.04 -0.4990133642141358 0  5.05 -0.498458666866564 0  5.06 -0.4977809823015401 0  5.07 -0.4969804777275898 0  5.08 -0.4960573506572389 0  5.09 -0.4950118288582788 0  5.1 -0.4938441702975689 0  5.11 -0.4925546630773869 0  5.12 -0.4911436253643443 0  5.13 -0.4896114053108829 0  5.14 -0.4879583809693738 0  5.15 -0.4861849601988382 0  5.16 -0.4842915805643155 0  5.17 -0.4822787092288991 0  5.18 -0.4801468428384716 0  5.19 -0.477896507399165 0  5.2 -0.4755282581475768 0  5.21 -0.4730426794137727 0  5.22 -0.4704403844771128 0  5.23 -0.4677220154149336 0  5.24 -0.4648882429441257 0  5.25 -0.4619397662556434 0  5.26 -0.4588773128419906 0  5.27 -0.4557016383177228 0  5.28 -0.4524135262330097 0  5.29 -0.4490137878803078 0  5.3 -0.4455032620941841 0  5.31 -0.4418828150443468 0  5.32 -0.4381533400219317 0  5.33 -0.4343157572190956 0  5.34 -0.4303710135019719 0  5.35 -0.4263200821770463 0  5.36 -0.4221639627510075 0  5.37 -0.4179036806841351 0  5.38 -0.413540287137281 0  5.39 -0.4090748587125119 0  5.4 -0.4045084971874736 0  5.41 -0.3998423292435452 0  5.42 -0.3950775061878453 0  5.43 -0.390215203669165 0  5.44 -0.3852566213878945 0  5.45 -0.3802029828000154 0  5.46 -0.3750555348152299 0  5.47 -0.369815547489305 0  5.48 -0.3644843137107056 0  5.49 -0.3590631488815942 0  5.5 -0.3535533905932738 0  5.51 -0.3479563982961574 0  5.52 -0.3422735529643446 0  5.53 -0.3365062567548867 0  5.54 -0.3306559326618259 0  5.55 -0.3247240241650921 0  5.56 -0.3187119948743451 0  5.57 -0.3126213281678525 0  5.58 -0.3064535268264882 0  5.59 -0.3002101126629422 0  5.6 -0.2938926261462368 0  5.61 -0.2875026260216392 0  5.62 -0.2810416889260652 0  5.63 -0.274511408999066 0  5.64 -0.2679133974894985 0  5.65 -0.2612492823579743 0  5.66 -0.2545207078751855 0  5.67 -0.2477293342162039 0  5.68 -0.2408768370508578 0  5.69 -0.2339649071302865 0  5.7 -0.2269952498697732 0  5.71 -0.2199695849279577 0  5.72 -0.2128896457825364 0  5.73 -0.2057571793025542 0  5.74 -0.1985739453173901 0  5.75 -0.1913417161825449 0  5.76 -0.1840622763423393 0  5.77 -0.1767374218896289 0  5.78 -0.1693689601226457 0  5.79 -0.1619587090990747 0  5.8 -0.154508497187474 0  5.81 -0.1470201626161523 0  5.82 -0.1394955530196146 0  5.83 -0.1319365249826864 0  5.84 -0.1243449435824276 0  5.85 -0.116722681927953 0  5.86 -0.1090716206982712 0  5.87 -0.1013936476782562 0  5.88 -0.09369065729286251 0  5.89 -0.08596455013970501 0  5.9 -0.07821723252011527 0  5.91 -0.07045061596879121 0  5.92 -0.06266661678215227 0  5.93 -0.05486715554552282 0  5.94 -0.04705415665925695 0  5.95 -0.03922954786392231 0  5.96 -0.03139525976465679 0  5.97 -0.02355322535482148 0  5.98 -0.0157053795390639 0  5.99 -0.007853658655910133 0  6 -6.123233995736766e-17 0  6.01 0 0  6.02 0 0  6.03 0 0  6.04 0 0  6.05 0 0  6.06 0 0  6.07 0 0  6.08 0 0  6.09 0 0  6.1 0 0  6.11 0 0  6.12 0 0  6.13 0 0  6.14 0 0  6.15 0 0  6.16 0 0  6.17 0 0  6
[...]
<PointData  Scalars="f_2196"> 
<DataArray  type="Float64"  Name="f_2196"  format="ascii">1.0000000000000000e+00  1.0000000000000000e+00  8.4498178341561825e-01  7.4912948788305189e-01  6.7734059270421587e-01  6.2252842437027578e-01  5.7953144040671500e-01  5.4366171792115303e-01  5.1262484442001999e-01  4.8709160242309973e-01  4.6438906091826260e-01  4.4459839414602553e-01  4.2651932252874253e-01  4.1059270267802134e-01  3.9595691049008747e-01  3.8334868774159131e-01  3.7145521234360124e-01  3.6050464334922866e-01  3.5016172295326609e-01  3.4101655317226220e-01  3.3215925350800618e-01  3.2400737069803265e-01  3.1629752464280458e-01  3.0947342803173533e-01  3.0294282130363864e-01  2.9666713416409868e-01  2.9105962100249855e-01  2.8559198749214931e-01  2.8047108139896609e-01  2.7557804511482992e-01  2.7115104486326674e-01  2.6676590323274718e-01  2.6261533823057381e-01  2.5862470141340088e-01  2.5500743531586151e-01  2.5140718695245495e-01  2.4785383660748150e-01  2.4460130908480504e-01  2.4140076798645735e-01  2.3844079557648079e-01  2.3551965976611536e-01  2.3285779365080447e-01  2.3017585221061707e-01  2.2759814188194646e-01  2.2504618679226721e-01  2.2268499290849433e-01  2.2028419734922378e-01  2.1802831826147800e-01  2.1577852107252560e-01  2.1361520470415027e-01  2.1152202530326300e-01  2.0960992003708462e-01  2.0770384806089057e-01  2.0581232002775443e-01  2.0404071708224228e-01  2.0228391689786318e-01  2.0064641601941494e-01  1.9898001540587265e-01  1.9737442103188446e-01  1.9577518801747854e-01  1.9429657180952184e-01  1.9278791078346411e-01  1.9134197777851286e-01  1.8990486444372243e-01  1.8856444297880920e-01  1.8720412582542631e-01  1.8587430959546461e-01  1.8463753592850507e-01  1.8336808771470386e-01  1.8211429278395924e-01  1.8087298815377748e-01  1.7971499237583066e-01  1.7853659171859912e-01  1.7742802501842189e-01  1.7629278954379687e-01  1.7519193322860047e-01  1.7410529569867786e-01  1.7307583641772395e-01  1.7203441102327274e-01  1.7106828678965830e-01  1.7008120210464514e-01  1.6912597158301004e-01  1.6815872884701483e-01  1.6720602541540272e-01  1.6630291713035111e-01  1.6536418739233655e-01  1.6446209775894402e-01  1.6356855949151153e-01  1.6272550670960567e-01  1.6187526450073178e-01  1.6108741413042710e-01  1.6028250542434988e-01  1.5950451363618443e-01  1.5871722201302310e-01  1.5794163194588504e-01  1.5720687517118306e-01  1.5644284486565713e-01  1.5569271591523551e-01  1.5494409141029705e-01  1.5424319204098766e-01  1.5352451370632555e-01  1.5280259453704748e-01  1.5211359425543616e-01  1.5141126743126343e-01  1.5074449649532018e-01  1.5005539466357098e-01  1.4936858896045671e-01  1.4868580737213805e-01  1.4804183871811163e-01  1.4737573424299019e-01  1.4670643114218970e-01  1.4607124504628463e-01  1.4542622731676363e-01  1.4481727485129095e-01  1.4419147483938044e-01  1.4357115191165273e-01  1.4298916224762934e-01  1.4238864725607731e-01  1.4178206116435887e-01  1.4118162244731444e-01  1.4060969056271364e-01  1.4003238840478513e-01  1.3948945878473265e-01  1.3892358956824061e-01  1.3838873949460412e-01  1.3782929061325808e-01  1.3728053684236102e-01  1.3671986095828992e-01  1.3616627565881045e-01  1.3564109829693163e-01  1.3510091513573994e-01  1.3459640726574948e-01  1.3407528310187075e-01  1.3357240977972340e-01  1.3306387343376430e-01  1.3255630219251516e-01  1.3206830624606888e-01  1.3157528967362905e-01  1.3110839656068429e-01  1.3062239789261249e-01  1.3015520885093171e-01  1.2967774544165853e-01  1.2920550623823951e-01  1.2873497645235810e-01  1.2828948031186085e-01  1.2783109972967513e-01  1.2737032896059089e-01  1.2692466711741712e-01  1.2647139267177615e-01  1.2604333600427889e-01  1.2559744339051496e-01  1.2516156764781095e-01  1.2471986924353684e-01  1.2430134138152579e-01  1.2386960181671852e-01  1.2344743034124114e-01  1.2301264305817725e-01  1.2258237596488798e-01  1.2217128711560657e-01  1.2174282830379544e-01  1.2131759468714601e-01  1.2089863870310359e-01  1.2050107109849170e-01  1.2009118596135010e-01  1.1968314449944946e-01  1.1929297076607896e-01  1.1888890870221001e-01  1.1850702343132569e-01  1.1810775110220950e-01  1.1771628946470639e-01  1.1732432123627953e-01  1.1695738211325590e-01  1.1657602588859840e-01  1.1619105798350926e-01  1.1582769479691297e-01  1.1545254007539174e-01  1.1508224099865959e-01  1.1471160837587198e-01  1.1436134954131399e-01  1.1399852360011051e-01  1.1363216831509834e-01  1.1327887448754775e-01  1.1292107400082628e-01  1.1258186123654319e-01  1.1222675724471882e-01  1.1186752119616097e-01  1.1152521903673383e-01  1.1116956484447246e-01  1.1082828498688160e-01  1.1047205065939632e-01  1.1012097867957370e-01  1.0977392416654852e-01  1.0944754019270789e-01  1.0910739769703033e-01  1.0876168901933551e-01  1.0843184885027926e-01  1.0808923088110543e-01  1.0775693319594079e-01  1.0741447597400822e-01  1.0707548701705023e-01  1.0675369930371112e-01  1.0641891791081118e-01  1.0608928058203525e-01  1.0576167334350402e-01  1.0545084108667210e-01  1.0512482033269648e-01  1.0479366004828421e-01  1.0447882424198464e-01  1.0415284835389792e-01  1.0383999491456679e-01  1.0351661733686003e-01  1.0319547459891289e-01  1.0287845907217819e-01  1.0257402834671528e-01  1.0226194928840664e-01  1.0196528342133451e-01  1.0165542759651143e-01  1.0135480928113043e-01  1.0104449382584997e-01  1.0073311688408601e-01  1.0042101593500528e-01  1.0012196125005710e-01  9.9816065265079426e-02  9.9528361507271970e-02  9.9227859540359634e-02  9.8921092095749424e-02  9.8627548371980636e-02  9.8321883513065686e-02  9.8015514909233076e-02  9.7710970193786439e-02  9.7422819554426041e-02  9.7122204785980867e-02  9.6818701457773312e-02  9.6532314606959019e-02  9.6239223038983759e-02  9.5945180187870599e-02  9.5661663322444926e-02  9.5374417987324836e-02  9.5101493504331738e-02  9.4816414346359582e-02  9.4534889510588999e-02  9.4252353707301853e-02  9.3985288536413580e-02  9.3707013881515450e-02  9.3426093726081447e-02  9.3157953200244073e-02  9.2879428577356260e-02  9.2602758843760055e-02  9.2321520260954415e-02  9.2055187843503750e-02  9.1778158472405030e-02  9.1514413371816664e-02  9.1239177643877969e-02  9.0967985227194473e-02  9.0698256928496063e-02  9.0441583803396716e-02  9.0171564821337258e-02  8.9896670066278134e-02  8.9634834507579600e-02  8.9363215415729239e-02  8.9102321855412503e-02  8.8832380660709823e-02  8.8564441966016733e-02  8.8300174638159354e-02  8.8048312703759846e-02  8.7787599397675192e-02  8.7527739841777433e-02  8.7279307471248374e-02  8.7019611458259788e-02  8.6759535977756805e-02  8.6500448330900953e-02  8.6254902007931067e-02  8.6000472074354989e-02  8.5743754762729649e-02  8.5498068712107772e-02  8.5244146375082611e-02  8.4990901241259478e-02  8.4747834837063968e-02  8.4494930339243962e-02  8.4243689007919564e-02  8.4006421487054117e-02  8.3759770269923053e-02  8.3512542373045784e-02  8.3267013189672071e-02  8.3032869138484178e-02  8.2789943414413328e-02  8.2551523029131615e-02  8.2324618538646699e-02  8.2084928575675051e-02  8.1850996432701606e-02  8.1609176057032926e-02  8.1369959976843681e-02  8.1134739963466956e-02  8.0912142731059331e-02  8.0679929055909386e-02  8.0445519219385184e-02  8.0222003706318670e-02  7.9990074492362950e-02  7.9759949422975429e-02  7.9526233227193294e-02  7.9304821024887465e-02  7.9074429670221158e-02  7.8854932178946666e-02  7.8625709819781689e-02  7.8399788409733925e-02  7.8175041816528013e-02  7.7961169845251199e-02  7.7736173895024338e-02  7.7507135601192947e-02  7.7289037545205663e-02  7.7062852746111229e-02  7.6845490954486173e-02  7.6620468712371839e-02  7.6396562116432948e-02  7.6177515473368346e-02  7.5969989745198960e-02  7.5753599501140759e-02  7.5547195049169527e-02  7.5330904100938928e-02  7.5115346783527007e-02  7.4899824679297913e-02  7.4696169408917476e-02  7.4485534373635809e-02  7.4273141744509677e-02  7.4069564505602231e-02  7.3858692517258392e-02  7.3647815425071608e-02  7.3443112242913597e-02  7.3232760446066109e-02  7.3034653725705362e-02  7.2827748243375026e-02  7.2630754773749237e-02  7.2427616872951572e-02  7.2223189271486285e-02  7.2027013963661082e-02  7.1829164167790741e-02  7.1642882602454272e-02  7.1448394051215905e-02  7.1265158910841730e-02  7.1074007486494173e-02  7.0888994510061434e-02  7.0700218542515833e-02  7.0514741976701337e-02  7.0334324509183380e-02  7.0165190024752258e-02  6.9990599278078061e-02  6.9815421386344667e-02  6.9649896802124453e-02  6.9479862291880468e-02  6.9311593859044007e-02  6.9144137407017192e-02  6.8987678130715963e-02  6.8827780550147863e-02  6.8678555850636050e-02  6.8526591858583397e-02  6.8378061032638202e-02  6.8240709306827810e-02  6.8100429190168232e-02  6.7967526006915191e-02  6.7835838152974295e-02  6.7707896951700486e-02  6.7590747225374379e-02  6.7472821856989176e-02  6.7357067349003694e-02  6.7246120764596712e-02  6.7146285348435877e-02  6.7048851204808857e-02  6.6962418688840231e-02  6.6879858517019608e-02  6.6802721113360136e-02  6.6737281697872949e-02  6.6676929731245532e-02  6.6627488288332426e-02  6.6587839387666770e-02  6.6554505287649293e-02  6.6534621001680186e-02  6.6526279346711639e-02  6.6531211317428091e-02  6.6550460401862743e-02  6.6586080931034103e-02  6.6641439617712878e-02  6.6712932422234389e-02  6.6805282445963177e-02  6.6910496164486077e-02  6.7036660030393866e-02  6.7188606061999556e-02  6.7359352895355384e-02  6.7566620809612427e-02  6.7792888156244985e-02  6.8057318306467010e-02  6.8345491797690852e-02  6.8684452396416282e-02  6.9071907064737731e-02  6.9514187370186775e-02  7.0000362446758210e-02  7.0575280928899795e-02  7.1224272970412464e-02  7.2005981197635627e-02  7.2856981070483121e-02  7.3855282953791138e-02  7.5098667723373785e-02  7.6657330149119671e-02  7.3300039782843981e-02  7.0645952772812270e-02  6.8250476194229581e-02  6.6236634938713720e-02  6.4414244908304025e-02  6.2837622252691461e-02  6.1332332901943197e-02  5.9910967301893908e-02  5.8661276089497089e-02  5.7421879538427020e-02  5.6236811677516825e-02  5.5106274886210282e-02  5.4094361245401033e-02  5.3088262675645231e-02  5.2169914370330868e-02  5.1251352055858831e-02  5.0371005438688929e-02  4.9574229740439409e-02  4.8759050623289182e-02  4.7985847147780057e-02  4.7212838502911116e-02  4.6468101974348613e-02  4.5778735790931550e-02  4.5076416572907299e-02  4.4436456420114637e-02  4.3774872299749530e-02  4.3140188796073994e-02  4.2514637523921414e-02  4.1945568651923483e-02  4.1356525982487784e-02  4.0816177199330547e-02  4.0252725639242586e-02  3.9710887261135919e-02  3.9174036632241095e-02  3.8683334844910836e-02  3.8175023945585550e-02  3.7699529776627001e-02  3.7213107719106873e-02  3.6734545836872155e-02  3.6280741429087687e-02  3.5829412118364906e-02  3.5411781220978454e-02  3.4975269074416483e-02  3.4544826927937901e-02  3.4146664112679623e-02  3.3738977181021333e-02  3.3342268680288632e-02  3.2969360086514715e-02  3.2598419010769944e-02  3.2253592243373701e-02  3.1894783519785537e-02  3.1556387260085764e-02  3.1211832592273829e-02  3.0871937980547191e-02  3.0541181384852050e-02  3.0231881710262327e-02  2.9915719965377747e-02  2.9620349376536143e-02  2.9315213374597370e-02  2.9026906811211065e-02  2.8761323249903083e-02  2.8486136104657025e-02  2.8217269299417820e-02  2.7950065878563916e-02  2.7701437118249735e-02  2.7445157886973794e-02  2.7199884891282205e-02  2.6970805787187146e-02  2.6737326622965619e-02  2.6514161724713575e-02  2.6301408023044669e-02  2.6089750821764436e-02  2.5893440141039066e-02  2.5692237549240254e-02  2.5504402981850003e-02  2.5310774521884769e-02  2.5130935350581477e-02  2.4965774355731475e-02  2.4795905728086563e-02  2.4634449982184441e-02  2.4470105522212487e-02  2.4320978172394196e-02  2.4182302909058342e-02  2.4038650728703197e-02  2.3899279075233603e-02  2.3766406967307935e-02  2.3644409967189438e-02  2.3522625184171999e-02  2.3412042754200210e-02  2.3301700526552619e-02  2.3204605848773690e-02  2.3118899873435395e-02  2.3034437367498804e-02  2.2956266362191211e-02  2.2881638967295389e-02  2.2814360662118321e-02  2.2747116037041725e-02  2.2686098242644285e-02  2.2624674136059463e-02  2.2568880181857771e-02  2.2518766510435190e-02  2.2476698959386397e-02  2.2437622430755467e-02  2.2408180715991190e-02  2.2384320352940905e-02  2.2363564515561787e-02  2.2347431808063815e-02  2.2336039644467932e-02  2.2327170255412705e-02  2.2319595255675392e-02  2.2319086621052954e-02  2.2325006541811323e-02  2.2334873265035162e-02  2.2349578012117802e-02  2.2368761341311265e-02  2.2393314452743712e-02  2.2422562882509212e-02  2.2455429842221663e-02  2.2487232923881537e-02  2.2520838052954260e-02  2.2565165624280879e-02  2.2610368231436553e-02  2.2660112254985102e-02  2.2719275735394444e-02  2.2777186238804408e-02  2.2838976049340202e-02  2.2911537754256295e-02  2.2981265253475026e-02  2.3055665851509768e-02  2.3137009628675351e-02  2.3216616544532161e-02  2.3304038784266155e-02  2.3392489074137612e-02  2.3486683725548456e-02  2.3584089035526740e-02  2.3678324192913276e-02  2.3780860641768511e-02  2.3886127696652219e-02  2.3996720010094740e-02  2.4115061777307701e-02  2.4226584745527389e-02  2.4343074766708994e-02  2.4470255261262792e-02  2.4592500488666472e-02  2.4723945513036586e-02  2.4858819323850659e-02  2.4996961077554204e-02  2.5129154763602651e-02  2.5270214806739289e-02  2.5422727127131551e-02  2.5571528142376926e-02  2.5729178441412179e-02  2.5884426563179540e-02  2.6049852565182274e-02  2.6207609250602105e-02  2.6377483343529684e-02  2.6541847753685750e-02  2.6716914809942833e-02  2.6902315898840418e-02  2.7080416474741756e-02  2.7268749628539868e-02  2.7466556679420898e-02  2.7659925863650982e-02  2.7866859605545840e-02  2.8080362920011918e-02  2.8288559261114964e-02  2.8514098160159321e-02  2.8744906043480463e-02  2.8979559840754825e-02  2.9206575726746547e-02  2.9454430867204298e-02  2.9696782050780645e-02  2.9963885581203879e-02  3.0237164012035786e-02  3.0523260779879859e-02  3.0800081219534085e-02  3.1101561868385516e-02  3.1414630941140984e-02  3.1722927015562667e-02  3.2061367592189610e-02  3.2395952959951388e-02  3.2764033907422205e-02  3.3153746032072523e-02  3.3551148794727252e-02  3.3947437087381863e-02  3.4391784910344454e-02  3.4856220537742628e-02  3.5327033729371494e-02  3.5856456347176276e-02  3.6407660637004069e-02  3.7030403859887463e-02  3.7681511477143881e-02  3.8360862102516845e-02  3.9153511062474132e-02  4.0005500528056577e-02  4.0911983457584032e-02  4.1994834857231669e-02  4.3232831386559083e-02  4.4706377931448583e-02  4.6572307166057571e-02  4.5465707594949195e-02  4.4559755405560668e-02  4.3751947592228273e-02  4.3066688144604716e-02  4.2446734392085718e-02  4.1908532323081484e-02  4.1405209478346638e-02  4.0939772206421705e-02  4.0509169251011147e-02  4.0120121011189204e-02  3.9744910433288608e-02  3.9407426241962418e-02  3.9075214059979775e-02  3.8762055215198328e-02  3.8458534285703533e-02  3.8185314191692389e-02  3.7914393818326508e-02  3.7659537142258448e-02  3.7413568929963351e-02  3.7189888911764335e-02  3.6964885758048072e-02  3.6758302743309046e-02  3.6548669947137485e-02  3.6344857242039473e-02  3.6146175287501817e-02  3.5964642829689107e-02  3.5783315297833185e-02  3.5603437806085880e-02  3.5435316597131672e-02  3.5265572954044686e-02  3.5097838118123788e-02  3.4938014133934513e-02  3.4776568671334072e-02  3.4626976473855570e-02  3.4473868206799679e-02  3.4325529122273775e-02  3.4176934067269342e-02  3.4037784515501206e-02  3.3895402959089389e-02  3.3757023570163511e-02  3.3627314177891506e-02  3.3492363387746596e-02  3.3360952352800434e-02  3.3231022633028191e-02  3.3110392974957499e-02  3.2987002253305912e-02  3.2866797345657360e-02  3.2746977621450971e-02  3.2634491061798172e-02  3.2518291887954555e-02  3.2406495578649427e-02  3.2292354593257237e-02  3.2178854552090096e-02  3.2066468714456321e-02  3.1960675481000685e-02  3.1852086544319161e-02  3.1742661681024867e-02  3.1637783087703521e-02  3.1531267985905206e-02  3.1429610732555908e-02  3.1324028188963390e-02  3.1218371793146814e-02  3.1113004365730810e-02  3.1013102408036643e-02  3.0909225258930941e-02  3.0805184838300553e-02  3.0706388416247614e-02  3.0604251985844915e-02  3.0505041568215215e-02  3.0405255348360753e-02  3.0311624157781127e-02  3.0214808295748779e-02  3.0120304802184278e-02  3.0023724813594645e-02  2.9928163737178531e-02  2.9836868484220406e-02  2.9741218147005630e-02  2.9646489192377799e-02  2.9551617866984188e-02  2.9462564092049431e-02  2.9371012869606205e-02  2.9278836960600980e-02  2.9190167426407794e-02  2.9100405663254118e-02  2.9015360594496987e-02  2.8926556709799985e-02  2.8839652328033902e-02  2.8751619109553764e-02  2.8667955749756131e-02  2.8581393456885967e-02  2.8495123009990238e-02  2.8412890477101441e-02  2.8326935713934145e-02  2.8240989077631357e-02  2.8154784376771155e-02  2.8072404178277388e-02  2.7986771859864860e-02  2.7902522121861017e-02  2.7822360245487409e-02  2.7737834302308789e-02  2.7652576386532901e-02  2.7567095835525655e-02  2.7486518213990539e-02  2.7403219106177292e-02  2.7324606407824456e-02  2.7243421170128186e-02  2.7161971659818578e-02  2.7081346707376330e-02  2.7004258519875268e-02  2.6924200603177077e-02  2.6843397897038136e-02  2.6762311447255060e-02  2.6684620333212023e-02  2.6604015873160497e-02  2.6526961165375996e-02  2.6446733538595731e-02  2.6366967448990981e-02  2.6288056756607194e-02  2.6212839619679601e-02  2.6134942103565331e-02  2.6057272247787595e-02  2.5983001510354712e-02  2.5905335402526750e-02  2.5827584712699251e-02  2.5750042547563107e-02  2.5676571194703474e-02  2.5600449980998394e-02  2.5523673657493466e-02  2.5450275793620282e-02  2.5374494065975441e-02  2.5298954602151244e-02  2.5226597569476990e-02  2.5151487650807443e-02  2.5076842446696765e-02  2.5006410859323799e-02  2.4933303423522978e-02  2.4860121094488135e-02  2.4787411054063860e-02  2.4718003114800983e-02  2.4645910670878360e-02  2.4575083101167895e-02  2.4507521051727717e-02  2.4435964266683159e-02  2.4365966093476851e-02  2.4293253965234959e-02  2.4221453232453814e-02  2.4150368992587552e-02  2.4082987436190455e-02  2.4012491179381961e-02  2.3941073335476227e-02  2.3872866927075360e-02  2.3801982439538967e-02  2.3731510590791722e-02  2.3659873727490139e-02  2.3592114818504480e-02  2.3521898081664026e-02  2.3455039672193485e-02  2.3385438066417713e-02  2.3316865569204391e-02  2.3248714752082532e-02  2.3184103623829104e-02  2.3116393549333068e-02  2.3047323107366263e-02  2.2981341795204890e-02  2.2913086541253319e-02  2.2847867439310814e-02  2.2779994453884903e-02  2.2712628931595324e-02  2.2645893883516736e-02  2.2582270034912068e-02  2.2516355697785782e-02  2.2450614995585344e-02  2.2387720356031787e-02  2.2321911477497652e-02  2.2256025389398040e-02  2.2190238381379627e-02  2.2127878168746111e-02  2.2063234013211020e-02  2.1998022344373879e-02  2.1935664299488757e-02  2.1871260456487424e-02  2.1807051997590275e-02  2.1745527419752334e-02  2.1681633037433232e-02  2.1618148364480737e-02  2.1558226398675637e-02  2.1495992491969880e-02  2.1433681985041156e-02  2.1371836965358031e-02  2.1312949061740395e-02  2.1251907338029716e-02  2.1192553363014711e-02  2.1131287679156306e-02  2.1070464142631341e-02  2.1012094310413357e-02  2.0950744802147959e-02  2.0889699372381380e-02  2.0828478493059233e-02  2.0770496531972174e-02  2.0709782736090775e-02  2.0651902930753949e-02  2.0591000815073392e-02  2.0529404915111564e-02  2.0467415428536518e-02  2.0408909750931813e-02  2.0348351452173796e-02  2.0291199109698208e-02  2.0232175378191844e-02  2.0172976779499072e-02  2.0114402681176962e-02  2.0058428373637756e-02  2.0000329443236615e-02  1.9941715884366107e-02  1.9882922124755936e-02  1.9826619619535728e-02  1.9768236066310330e-02  1.9712447575880636e-02  1.9654386917510779e-02  1.9596668983318050e-02  1.9539574168976549e-02  1.9485149802127847e-02  1.9428783906150479e-02  1.9372579071937755e-02  1.9318822841534286e-02  1.9262597411661402e-02  1.9206294467793362e-02  1.9150124210289367e-02  1.9096879729972