<?xml version="1.0"?>
<VTKFile type="UnstructuredGrid"  version="0.1"  >
<UnstructuredGrid>
<Piece  NumberOfPoints="5023" NumberOfCells="7844">
<Points>
<DataArray  type="Float64"  NumberOfComponents="3"  format="ascii">0 0.01 0  0 0 0  0.01 0 0  0.02 0 0  0.03 0 0  0.04 0 0  0.05 0 0  0.06 0 0  0.07000000000000001 0 0  0.08 0 0  0.09 0 0  0.1 0 0  0.11 0 0  0.12 0 0  0.13 0 0  0.14 0 0  0.15 0 0  0.16 0 0  0.17 0 0  0.18 0 0  0.19 0 0  0.2 0 0  0.21 0 0  0.22 0 0  0.23 0 0  0.24 0 0  0.25 0 0  0.26 0 0  0.27 0 0  0.28 0 0  0.29 0 0  0.3 0 0  0.31 0 0  0.32 0 0  0.33 0 0  0.34 0 0  0.35 0 0  0.36 0 0  0.37 0 0  0.38 0 0  0.39 0 0  0.4 0 0  0.41 0 0  0.42 0 0  0.43 0 0  0.44 0 0  0.45 0 0  0.46 0 0  0.47 0 0  0.48 0 0  0.49 0 0  0.5 0 0  0.51 0 0  0.52 0 0  0.53 0 0  0.54 0 0  0.55 0 0  0.5600000000000001 0 0  0.57 0 0  0.58 0 0  0.59 0 0  0.6 0 0  0.61 0 0  0.62 0 0  0.63 0 0  0.64 0 0  0.65 0 0  0.66 0 0  0.67 0 0  0.68 0 0  0.6899999999999999 0 0  0.7 0 0  0.71 0 0  0.72 0 0  0.73 0 0  0.74 0 0  0.75 0 0  0.76 0 0  0.77 0 0  0.78 0 0  0.79 0 0  0.8 0 0  0.8100000000000001 0 0  0.82 0 0  0.83 0 0  0.84 0 0  0.85 0 0  0.86 0 0  0.87 0 0  0.88 0 0  0.89 0 0  0.9 0 0  0.91 0 0  0.92 0 0  0.93 0 0  0.9399999999999999 0 0  0.95 0 0  0.96 0 0  0.97 0 0  0.98 0 0  0.99 0 0  1 0 0  1.01 0 0  1.02 0 0  1.03 0 0  1.04 0 0  1.05 0 0  1.06 0 0  1.07 0 0  1.08 0 0  1.09 0 0  1.1 0 0  1.11 0 0  1.12 0 0  1.13 0 0  1.14 0 0  1.15 0 0  1.16 0 0  1.17 0 0  1.18 0 0  1.19 0 0  1.2 0 0  1.21 0 0  1.22 0 0  1.23 0 0  1.24 0 0  1.25 0 0  1.26 0 0  1.27 0 0  1.28 0 0  1.29 0 0  1.3 0 0  1.31 0 0  1.32 0 0  1.33 0 0  1.34 0 0  1.35 0 0  1.36 0 0  1.37 0 0  1.38 0 0  1.39 0 0  1.4 0 0  1.41 0 0  1.42 0 0  1.43 0 0  1.44 0 0  1.45 0 0  1.46 0 0  1.47 0 0  1.48 0 0  1.49 0 0  1.5 0 0  1.51 0 0  1.52 0 0  1.53 0 0  1.54 0 0  1.55 0 0  1.56 0 0  1.57 0 0  1.58 0 0  1.59 0 0  1.6 0 0  1.61 0 0  1.62 0 0  1.63 0 0  1.64 0 0  1.65 0 0  1.66 0 0  1.67 0 0  1.68 0 0  1.69 0 0  1.7 0 0  1.71 0 0  1.72 0 0  1.73 0 0  1.74 0 0  1.75 0 0  1.76 0 0  1.77 0 0  1.78 0 0  1.79 0 0  1.8 0 0  1.81 0 0  1.82 0 0  1.83 0 0  1.84 0 0  1.85 0 0  1.86 0 0  1.87 0 0  1.88 0 0  1.89 0 0  1.9 0 0  1.91 0 0  1.92 0 0  1.93 0 0  1.94 0 0  1.95 0 0  1.96 0 0  1.97 0 0  1.98 0 0  1.99 0 0  2 0 0  2.01 0 0  2.02 0 0  2.03 0 0  2.04 0 0  2.05 0 0  2.06 0 0  2.07 0 0  2.08 0 0  2.09 0 0  2.1 0 0  2.11 0 0  2.12 0 0  2.13 0 0  2.14 0 0  2.15 0 0  2.16 0 0  2.17 0 0  2.18 0 0  2.19 0 0  2.2 0 0  2.21 0 0  2.22 0 0  2.23 0 0  2.24 0 0  2.25 0 0  2.26 0 0  2.27 0 0  2.28 0 0  2.29 0 0  2.3 0 0  2.31 0 0  2.32 0 0  2.33 0 0  2.34 0 0  2.35 0 0  2.36 0 0  2.37 0 0  2.38 0 0  2.39 0 0  2.4 0 0  2.41 0 0  2.42 0 0  2.43 0 0  2.44 0 0  2.45 0 0  2.46 0 0  2.47 0 0  2.48 0 0  2.49 0 0  2.5 0 0  2.51 0 0  2.52 0 0  2.53 0 0  2.54 0 0  2.55 0 0  2.56 0 0  2.57 0 0  2.58 0 0  2.59 0 0  2.6 0 0  2.61 0 0  2.62 0 0  2.63 0 0  2.64 0 0  2.65 0 0  2.66 0 0  2.67 0 0  2.68 0 0  2.69 0 0  2.7 0 0  2.71 0 0  2.72 0 0  2.73 0 0  2.74 0 0  2.75 0 0  2.76 0 0  2.77 0 0  2.78 0 0  2.79 0 0  2.8 0 0  2.81 0 0  2.82 0 0  2.83 0 0  2.84 0 0  2.85 0 0  2.86 0 0  2.87 0 0  2.88 0 0  2.89 0 0  2.9 0 0  2.91 0 0  2.92 0 0  2.93 0 0  2.94 0 0  2.95 0 0  2.96 0 0  2.97 0 0  2.98 0 0  2.99 0 0  3 0 0  3.01 0 0  3.02 0 0  3.03 0 0  3.04 0 0  3.05 0 0  3.06 0 0  3.07 0 0  3.08 0 0  3.09 0 0  3.1 0 0  3.11 0 0  3.12 0 0  3.13 0 0  3.14 0 0  3.15 0 0  3.16 0 0  3.17 0 0  3.18 0 0  3.19 0 0  3.2 0 0  3.21 0 0  3.22 0 0  3.23 0 0  3.24 0 0  3.25 0 0  3.26 0 0  3.27 0 0  3.28 0 0  3.29 0 0  3.3 0 0  3.31 0 0  3.32 0 0  3.33 0 0  3.34 0 0  3.35 0 0  3.36 0 0  3.37 0 0  3.38 0 0  3.39 0 0  3.4 0 0  3.41 0 0  3.42 0 0  3.43 0 0  3.44 0 0  3.45 0 0  3.46 0 0  3.47 0 0  3.48 0 0  3.49 0 0  3.5 0 0  3.51 0 0  3.52 0 0  3.53 0 0  3.54 0 0  3.55 0 0  3.56 0 0  3.57 0 0  3.58 0 0  3.59 0 0  3.6 0 0  3.61 0 0  3.62 0 0  3.63 0 0  3.64 0 0  3.65 0 0  3.66 0 0  3.67 0 0  3.68 0 0  3.69 0 0  3.7 0 0  3.71 0 0  3.72 0 0  3.73 0 0  3.74 0 0  3.75 0 0  3.76 0 0  3.77 0 0  3.78 0 0  3.79 0 0  3.8 0 0  3.81 0 0  3.82 0 0  3.83 0 0  3.84 0 0  3.85 0 0  3.86 0 0  3.87 0 0  3.88 0 0  3.89 0 0  3.9 0 0  3.91 0 0  3.92 0 0  3.93 0 0  3.94 0 0  3.95 0 0  3.96 0 0  3.97 0 0  3.98 0 0  3.99 0 0  4 0 0  4.01 0 0  4.02 0 0  4.03 0 0  4.04 0 0  4.05 0 0  4.06 0 0  4.07 0 0  4.08 0 0  4.09 0 0  4.1 0 0  4.11 0 0  4.12 0 0  4.13 0 0  4.14 0 0  4.15 0 0  4.16 0 0  4.17 0 0  4.18 0 0  4.19 0 0  4.2 0 0  4.21 0 0  4.22 0 0  4.23 0 0  4.24 0 0  4.25 0 0  4.26 0 0  4.27 0 0  4.28 0 0  4.29 0 0  4.3 0 0  4.31 0 0  4.32 0 0  4.33 0 0  4.34 0 0  4.35 0 0  4.36 0 0  4.37 0 0  4.38 0 0  4.39 0 0  4.4 0 0  4.41 0 0  4.42 0 0  4.43 0 0  4.44 0 0  4.45 0 0  4.46 0 0  4.47 0 0  4.48 0 0  4.49 0 0  4.5 0 0  4.51 -0.06282151815625525 0  4.52 -0.1255810390586241 0  4.53 -0.1882166266370302 0  4.54 -0.2506664671286087 0  4.55 -0.3128689300804606 0  4.56 -0.3747626291714468 0  4.57 -0.4362864827930868 0  4.58 -0.49737977432971 0  4.59 -0.5579822120784577 0  4.6 -0.6180339887498927 0  4.61 -0.6774758404905846 0  4.62 -0.7362491053693565 0  4.63 -0.7942957812695606 0  4.64 -0.8515585831301434 0  4.65 -0.9079809994790955 0  4.66 -0.9635073482034314 0  4.67 -1.018082831500742 0  4.68 -1.071653589957992 0  4.69 -1.124166755704263 0  4.7 -1.175570504584947 0  4.71 -1.225814107305953 0  4.72 -1.274847979497378 0  4.73 -1.322623730647306 0  4.74 -1.369094211857378 0  4.75 -1.414213562373095 0  4.76 -1.457937254842822 0  4.77 -1.500222139260917 0  4.78 -1.541026485551579 0  4.79 -1.580310024751381 0  4.8 -1.618033988749894 0  4.81 -1.654161148549122 0  4.82 -1.688655851004031 0  4.83 -1.721484054007887 0  4.84 -1.752613360087727 0  4.85 -1.782013048376735 0  4.86 -1.80965410493204 0  4.87 -1.835509251367963 0  4.88 -1.859552971776502 0  4.89 -1.88176153790845 0  4.9 -1.902113032590308 0  4.91 -1.920587371353886 0  4.92 -1.937166322257262 0  4.93 -1.951833523877494 0  4.94 -1.964574501457378 0  4.95 -1.975376681190276 0  4.96 -1.984229402628956 0  4.97 -1.99112392920616 0  4.98 -1.996053456856543 0  4.99 -1.999013120731463 0  5 -2 0  5.01 -1.999013120731463 0  5.02 -1.996053456856543 0  5.03 -1.99112392920616 0  5.04 -1.984229402628956 0  5.05 -1.975376681190276 0  5.06 -1.964574501457378 0  5.07 -1.951833523877494 0  5.08 -1.937166322257262 0  5.09 -1.920587371353886 0  5.1 -1.902113032590308 0  5.11 -1.88176153790845 0  5.12 -1.859552971776503 0  5.13 -1.835509251367963 0  5.14 -1.80965410493204 0  5.15 -1.782013048376735 0  5.16 -1.752613360087727 0  5.17 -1.721484054007888 0  5.18 -1.688655851004031 0  5.19 -1.654161148549123 0  5.2 -1.618033988749894 0  5.21 -1.580310024751381 0  5.22 -1.54102648555158 0  5.23 -1.500222139260918 0  5.24 -1.457937254842822 0  5.25 -1.414213562373095 0  5.26 -1.369094211857378 0  5.27 -1.322623730647306 0  5.28 -1.274847979497378 0  5.29 -1.225814107305953 0  5.3 -1.175570504584947 0  5.31 -1.124166755704263 0  5.32 -1.071653589957992 0  5.33 -1.018082831500742 0  5.34 -0.9635073482034312 0  5.35 -0.9079809994790962 0  5.36 -0.8515585831301434 0  5.37 -0.7942957812695605 0  5.38 -0.7362491053693571 0  5.39 -0.6774758404905852 0  5.4 -0.6180339887498926 0  5.41 -0.5579822120784582 0  5.42 -0.4973797743297105 0  5.43 -0.4362864827930872 0  5.44 -0.3747626291714474 0  5.45 -0.3128689300804611 0  5.46 -0.2506664671286091 0  5.47 -0.1882166266370305 0  5.48 -0.1255810390586245 0  5.49 -0.06282151815625558 0  5.5 -2.449293598294706e-16 0  5.51 0 0  5.52 0 0  5.53 0 0  5.54 0 0  5.55 0 0  5.56 0 0  5.57 0 0  5.58 0 0  5.59 0 0  5.6 0 0  5.61 0 0  5.62 0 0  5.63 0 0  5.64 0 0  5.65 0 0  5.66 0 0  5.67 0 0  5.68 0 0  5.69 0 0  5.7 0 0  5.71 0 0  5.72 0 0  5.73 0 0  5.74 0 0  5.75 0 0  5.76 0 0  5.77 0 0  5.78 0 0  5.79 0 0  5.8 0 0  5.81 0 0  5.82 0 0  5.83 0 0  5.84 0 0  5.85 0 0  5.86 0 0  5.87 0 0  5.88 0 0  5.89 0 0  5.9 0 0  5.91 0 0  5.92 0 0  5.93 0 0  5.94 0 0  5.95 0 0  5.96 0 0  5.97 0 0  5.98 0 0  5.99 0 0  6 0 0  6.01 0 0  6.02 0 0  6.03 0 0  6.04 0 0  6.05 0 0  6.06 0 0  6.07 0 0  6.08 0 0  6.09 0 0  6.1 0 0  6.11 0 0  6.12 0 0  6.13 0 0  6.14 0 0  6.15 0 0  6.16 0 0  6.17 0 0  6.18 0 0  6.19 0 0  6.2 0 0  6.21 0 0  6.22 0 0  6.23 0 0  6.24 0 0  6.25 0 0  6.26 0 0  6.27 0 0  6.28 0 0  6.29 0 0  6.3 0 0  6.31 0 0  6.32 0 0  6.33 0 0  6.34 0 0  6.35 0 0  6.36 0 0  6.37 0 0  6.38 0 0  6.39 0 0  6.4 0 0  6.41 0 0  6.42 0 0  6.43 0 0  6.44 0 0  6.45 0 0  6.46 0 0  6.47 0 0  6.48 0 0  6.49 0 0  6.5 0 0  6.51 0 0  6.52 0 0  6.53 0 0  6.54 0 0  6.55 0 0  6.56 0 0  6.57 0 0  6.58 0 0  6.59 0 0  6.6 0 0  6.61 0 0  6.62 0 0  6.63 0 0  6.64 0 0  6.65 0 0  6.66 0 0  6.67 0 0  6.68 0 0  6.69 0 0  6.7 0 0  6.71 0 0  6.72 0 0  6.73 0 0  6.74 0 0  6.75 0 0  6.76 0 0  6.77 0 0  6.78 0 0  6.79 0 0  6.8 0 0  6.81 0 0  6.82 0 0  6.83 0 0  6.84 0 0  6.85 0 0  6.86 0 0  6.87 0 0  6.88 0 0  6.89 0 0  6.9 0 0  6.91 0 0  6.92 0 0  6.93 0 0  6.94 0 0  6.95 0 0  6.96 0 0  6.97 0 0  6.98 0 0  6.99 0 0  7 0 0  7.01 0 0  7.02 0 0  7.03 0 0  7.04 0 0  7.05 0 0  7.06 0 0  7.07 0 0  7.08 0 0  7.09 0 0  7.1 0 0  7.11 0 0  7.12 0 0  7.13 0 0  7.14 0 0  7.15 0 0  7.16 0 0  7.17 0 0  7.18 0 0  7.19 0 0  7.2 0 0  7.21 0 0  7.22 0 0  7.23 0 0  7.24 0 0  7.25 0 0  7.26 0 0  7.27 0 0  7.28 0 0  7.29 0 0  7.3 0 0  7.31 0 0  7.32 0 0  7.33 0 0  7.34 0 0  7.35 0 0  7.36 0 0  7.37 0 0  7.38 0 0  7.39 0 0  7.4 0 0  7.41 0 0  7.42 0 0  7.43 0 0  7.44 0 0  7.45 0 0  7.46 0 0  7.47 0 0  7.48 0 0  7.49 0 0  7.5 0 0  7.51 0 0  7.52 0 0  7.53 0 0  7.54 0 0  7.55 0 0  7.56 0 0  7.57 0 0  7.58 0 0  7.59 0 0  7.6 0 0  7.61 0 0  7.62 0 0  7.63 0 0  7.64 0 0  7.65 0 0  7.66 0 0  7.67 0 0  7.68 0 0  7.69 0 0  7.7 0 0  7.71 0 0  7.72 0 0  7.73 0 0  7.74 0 0  7.75 0 0  7.76 0 0  7.77 0 0  7.78 0 0  7.79 0 0  7.8 0 0  7.81 0 0  7.82 0 0  7.83 0 0  7.84 0 0  7.85 0 0  7.86 0 0  7.87 0 0  7.88 0 0  7.89 0 0  7.9 0 0  7.91 0 0  7.92 0 0  7.93 0 0  7.94 0 0  7.95 0 0  7.96 0 0  7.97 0 0  7.98 0 0  7.99 0 0  8 0 0  8.01 0 0  8.02 0 0  8.029999999999999 0 0  8.039999999999999 0 0  8.0500000
[...]
<PointData  Scalars="f_1317"> 
<DataArray  type="Float64"  Name="f_1317"  format="ascii">1.0000000000000000e+00  1.0000000000000000e+00  9.0319769443176312e-01  8.3769471021206543e-01  7.8529352233547656e-01  7.4240556646426548e-01  7.0702525322962384e-01  6.7612974908692214e-01  6.4856231894432337e-01  6.2454801960344153e-01  6.0284023469949932e-01  5.8319060639664888e-01  5.6499498926793024e-01  5.4839952157297600e-01  5.3292142769460171e-01  5.1894658931359272e-01  5.0575349860504326e-01  4.9335673567001637e-01  4.8156012227169198e-01  4.7071702183791697e-01  4.6029233404012154e-01  4.5049787213883086e-01  4.4118073213361020e-01  4.3260768318146164e-01  4.2440921561915163e-01  4.1647222484509039e-01  4.0911734533437349e-01  4.0200072754984306e-01  3.9523008749643662e-01  3.8872192293551255e-01  3.8263719707809263e-01  3.7668665801099332e-01  3.7098843415354232e-01  3.6548789171670237e-01  3.6033247066381352e-01  3.5527025619263275e-01  3.5029113771524423e-01  3.4559995889700840e-01  3.4101924798357058e-01  3.3667637000920486e-01  3.3242279370873234e-01  3.2842032695617751e-01  3.2446075388215445e-01  3.2062188465284769e-01  3.1684538817240393e-01  3.1325553536092687e-01  3.0967860747974973e-01  3.0625144416957450e-01  3.0286851339667847e-01  2.9959091352784650e-01  2.9640529114851921e-01  2.9339884243637360e-01  2.9043497068912677e-01  2.8750349805244829e-01  2.8469485808666062e-01  2.8192635389060028e-01  2.7928062065483855e-01  2.7663882025740022e-01  2.7406932865760192e-01  2.7152761588565161e-01  2.6910879855805681e-01  2.6669067408021291e-01  2.6434422535364521e-01  2.6202650548732198e-01  2.5980762629262921e-01  2.5759177291167090e-01  2.5541457296875819e-01  2.5333152855691821e-01  2.5123765234851481e-01  2.4917163022546668e-01  2.4713211196859583e-01  2.4517714017399594e-01  2.4321980657800868e-01  2.4133537564520674e-01  2.3944178941668054e-01  2.3759012998612994e-01  2.3576359287570600e-01  2.3399799649120212e-01  2.3223454584617059e-01  2.3054776634907159e-01  2.2885430980763510e-01  2.2719863673750562e-01  2.2554278864717733e-01  2.2390607374939961e-01  2.2232263386958484e-01  2.2071834611828292e-01  2.1915466324220537e-01  2.1760735279365243e-01  2.1611270423997547e-01  2.1462011158791983e-01  2.1319135867546957e-01  2.1175499825521429e-01  2.1034982254786244e-01  2.0894308475076170e-01  2.0755140099159142e-01  2.0620360946367280e-01  2.0483591726727413e-01  2.0348762728545999e-01  2.0214793119926128e-01  2.0085909044126460e-01  1.9956133999455078e-01  1.9826496136706814e-01  1.9700460211038553e-01  1.9573858167708846e-01  1.9451107716571192e-01  1.9326918595267731e-01  1.9203524922941168e-01  1.9081087745092223e-01  1.8962854467305518e-01  1.8843273604450353e-01  1.8723812244141894e-01  1.8608073172022582e-01  1.8492106775754330e-01  1.8379992442207949e-01  1.8266893954870964e-01  1.8154619742110417e-01  1.8046358914806487e-01  1.7936865510088384e-01  1.7827205676254071e-01  1.7718554876107462e-01  1.7612962076383304e-01  1.7507319159450607e-01  1.7405295663306314e-01  1.7301553600650826e-01  1.7201068708968284e-01  1.7098641710550128e-01  1.6997577289962279e-01  1.6895819797984607e-01  1.6794980959278158e-01  1.6697130664096593e-01  1.6598269650605746e-01  1.6503080649248247e-01  1.6406672516109519e-01  1.6312317715927879e-01  1.6217772604087136e-01  1.6123578254999360e-01  1.6031550700490466e-01  1.5939395831341835e-01  1.5850057517124305e-01  1.5759243161501560e-01  1.5670499961360160e-01  1.5581051235651766e-01  1.5492370075726467e-01  1.5404139996701577e-01  1.5318579982733863e-01  1.5232074254396563e-01  1.5145550890728249e-01  1.5060752828622814e-01  1.4975545274298474e-01  1.4893121551610786e-01  1.4809371000285412e-01  1.4726871348805359e-01  1.4644143493177936e-01  1.4563942700538340e-01  1.4482807991753402e-01  1.4402897348965618e-01  1.4322096866278253e-01  1.4241953255629788e-01  1.4163960418935315e-01  1.4084676914949690e-01  1.4005983254042273e-01  1.3928172062828981e-01  1.3852648471601220e-01  1.3776233303809904e-01  1.3700161901769489e-01  1.3626013750007662e-01  1.3550803398492131e-01  1.3477906725260339e-01  1.3403579920220896e-01  1.3330193845648142e-01  1.3256972186103891e-01  1.3186339955179996e-01  1.3114534215369089e-01  1.3042584121755701e-01  1.2972918922077625e-01  1.2902361374282567e-01  1.2832500895886054e-01  1.2762853943864738e-01  1.2695391889976732e-01  1.2626967024193075e-01  1.2558371274970243e-01  1.2491280997239904e-01  1.2424034079973337e-01  1.2358804931110361e-01  1.2292306339475968e-01  1.2225612901536385e-01  1.2160749116618981e-01  1.2094866537669625e-01  1.2030564457521126e-01  1.1965078463769703e-01  1.1900326756402853e-01  1.1836190267429857e-01  1.1774227775421282e-01  1.1711199591240667e-01  1.1647861610259774e-01  1.1586221508433897e-01  1.1523621844358616e-01  1.1462181715344225e-01  1.1399994242073860e-01  1.1338270427897959e-01  1.1278359098240859e-01  1.1217471126188663e-01  1.1157294469029179e-01  1.1097537537328564e-01  1.1039545782995340e-01  1.0980362868170655e-01  1.0920881787205755e-01  1.0863091719245145e-01  1.0804490136314879e-01  1.0747292999758605e-01  1.0689331599178528e-01  1.0631773759010381e-01  1.0574798017414486e-01  1.0519166154038458e-01  1.0463050226843744e-01  1.0408535809041398e-01  1.0353015864362509e-01  1.0298508901905799e-01  1.0243293042458862e-01  1.0188161296666290e-01  1.0133158039552506e-01  1.0079537793658222e-01  1.0025529180840248e-01  9.9733655019289727e-02  9.9202622654694358e-02  9.8667964240097120e-02  9.8147144709652287e-02  9.7617841241865524e-02  9.7090009507949215e-02  9.6565736228462484e-02  9.6057844799828498e-02  9.5541112932873248e-02  9.5023498458860017e-02  9.4522721516773670e-02  9.4018096368799778e-02  9.3514025834172704e-02  9.3020769021314315e-02  9.2526065249499134e-02  9.2045700348762680e-02  9.1556562157430035e-02  9.1072302984332262e-02  9.0589006178580553e-02  9.0120821801445039e-02  8.9644556627404504e-02  8.9167289948422268e-02  8.8702658561431322e-02  8.8230737101793882e-02  8.7762058713419661e-02  8.7291161558205183e-02  8.6834538523240051e-02  8.6370544642325964e-02  8.5919426089347647e-02  8.5460159600390023e-02  8.5006139883979648e-02  8.4555191457290846e-02  8.4117138029269914e-02  8.3669642835879077e-02  8.3219545481319365e-02  8.2781979465560318e-02  8.2337995624675822e-02  8.1904588507266410e-02  8.1465281085978045e-02  8.1029274904278845e-02  8.0598026405388101e-02  8.0178751370026696e-02  7.9753879952199902e-02  7.9330814631703078e-02  7.8918791818762019e-02  7.8499137976292960e-02  7.8080712495852980e-02  7.7664720181964519e-02  7.7261418789443093e-02  7.6852530782679743e-02  7.6442855452584668e-02  7.6043586818508591e-02  7.5639170425826782e-02  7.5236486508479319e-02  7.4843654626201780e-02  7.4444610809587253e-02  7.4048169690761653e-02  7.3664594587039819e-02  7.3275158462947326e-02  7.2886647369851260e-02  7.2501030014949439e-02  7.2125932434243242e-02  7.1745316184434832e-02  7.1369605391075619e-02  7.1004422820957702e-02  7.0630386581103669e-02  7.0262107926288245e-02  6.9888887163373922e-02  6.9518980462795199e-02  6.9153398489139109e-02  6.8798909137165520e-02  6.8437950283959631e-02  6.8076122008487672e-02  6.7723833836539571e-02  6.7365978126486398e-02  6.7010586571318309e-02  6.6653507418388089e-02  6.6307150336385137e-02  6.5955097209055055e-02  6.5612682337391315e-02  6.5263948279989631e-02  6.4919089319263212e-02  6.4576463957843042e-02  6.4243548403136119e-02  6.3903366944916315e-02  6.3561148737253506e-02  6.3228384939630608e-02  6.2890664905696753e-02  6.2560934808982518e-02  6.2226659218681160e-02  6.1894873872824566e-02  6.1566696871486776e-02  6.1247626469672647e-02  6.0924291923374098e-02  6.0602329204994386e-02  6.0288765094398192e-02  5.9969388355451979e-02  5.9650934221771444e-02  5.9334317305021242e-02  5.9027340976097145e-02  5.8716093119864921e-02  5.8403980628949512e-02  5.8098887472256160e-02  5.7791330980036068e-02  5.7491779434858538e-02  5.7187347631175202e-02  5.6884302069475534e-02  5.6583042239798084e-02  5.6291153493213689e-02  5.5994318201690450e-02  5.5696604327071131e-02  5.5406506527208958e-02  5.5116164871270287e-02  5.4835655784791146e-02  5.4550114600010781e-02  5.4263424233780867e-02  5.3984729025064224e-02  5.3701564231401031e-02  5.3420585062636923e-02  5.3141071485154234e-02  5.2870476893033508e-02  5.2594764553674185e-02  5.2317278138528989e-02  5.2046573144087449e-02  5.1774415108038305e-02  5.1510657725428934e-02  5.1241540536414741e-02  5.0971870959927286e-02  5.0710640592061040e-02  5.0445423876890501e-02  5.0180251626016026e-02  4.9922752333082056e-02  4.9662392749106395e-02  4.9402134187063670e-02  4.9147816094059243e-02  4.8889569040675714e-02  4.8632936119324149e-02  4.8382941941609893e-02  4.8128320238444988e-02  4.7875431656940248e-02  4.7624845513596428e-02  4.7380480495900233e-02  4.7134583715872001e-02  4.6896959777708927e-02  4.6655828194912340e-02  4.6417875538247853e-02  4.6177477064786726e-02  4.5938554837204978e-02  4.5705193259598854e-02  4.5466434847965961e-02  4.5231609099337211e-02  4.4997030935500948e-02  4.4769574891193542e-02  4.4539448228238326e-02  4.4310558975838812e-02  4.4088663743109532e-02  4.3864391360720373e-02  4.3648041716770905e-02  4.3428487949464273e-02  4.3212086887941828e-02  4.2996262050441124e-02  4.2787523648137024e-02  4.2575109181425284e-02  4.2361915227651127e-02  4.2155332351279426e-02  4.1946194943913571e-02  4.1743002505904632e-02  4.1536928832502221e-02  4.1333119555704519e-02  4.1132104991681094e-02  4.0937602007107748e-02  4.0739949778355260e-02  4.0547650800127469e-02  4.0351284353023237e-02  4.0157326617044048e-02  3.9963839475970098e-02  3.9777601608922894e-02  3.9589587871032984e-02  3.9402555046588177e-02  3.9222005922712404e-02  3.9039685554692019e-02  3.8858033911053226e-02  3.8682164120797988e-02  3.8504632391700634e-02  3.8328852548947696e-02  3.8154063159840317e-02  3.7984858080564725e-02  3.7816079738368598e-02  3.7654324057153861e-02  3.7491065374375479e-02  3.7329055255754570e-02  3.7174091671063621e-02  3.7018128308681821e-02  3.6862932536184244e-02  3.6714318232616602e-02  3.6565853629477500e-02  3.6422026710546604e-02  3.6279337347740401e-02  3.6143280240629308e-02  3.6006625984878332e-02  3.5875450880778745e-02  3.5744275150523946e-02  3.5618652568020472e-02  3.5492557396297870e-02  3.5371140299040503e-02  3.5253235843772601e-02  3.5143164099746632e-02  3.5035787634104115e-02  3.4930391180175879e-02  3.4831136972421309e-02  3.4735253118135717e-02  3.4646549185384824e-02  3.4560633972016822e-02  3.4480442550441963e-02  3.4404921538233421e-02  3.4336420827314383e-02  3.4272484945321570e-02  3.4216206455989981e-02  3.4164695620006409e-02  3.4119485422505258e-02  3.4078888900703375e-02  3.4044093463586000e-02  3.4013537394559173e-02  3.3987700483079343e-02  3.3963865185466992e-02  3.3926178165728231e-02  3.3872860131480373e-02  3.3772949035727161e-02  3.3526277811987949e-02  2.5024111043719523e-02  1.9802113909199413e-02  1.6016550619572457e-02  1.3380510159451603e-02  1.1142921572504344e-02  9.3714557100860532e-03  8.0881244432891089e-03  6.8682983264674357e-03  5.8303835338306496e-03  5.0571111945296463e-03  4.2904692299085131e-03  3.6957785853111115e-03  3.1364575920540066e-03  2.6824824604436428e-03  2.2940309666315104e-03  1.9991608345823067e-03  1.7088244533959571e-03  1.4753372417690212e-03  1.2559391960072902e-03  1.0755830926285710e-03  9.2026109082586540e-04  8.0185800033406049e-04  6.8671649698725113e-04  5.9366106153678152e-04  5.0935542526891911e-04  4.4420815406338539e-04  3.8348855395633005e-04  3.3036547079756781e-04  2.8614632426794451e-04  2.5169709066851729e-04  2.1989804480094269e-04  1.9134292994962132e-04  1.6817639836232725e-04  1.4808191906168637e-04  1.3224929667588408e-04  1.1761105170573504e-04  1.0555500333078094e-04  9.5004308333800360e-05  8.6699494697432098e-05  7.9257198042625448e-05  7.3408173766079663e-05  6.8222891291429887e-05  6.3930100055530911e-05  6.0682860829601408e-05  5.8280894917288601e-05  5.6291463916280778e-05  5.4891085446861114e-05  5.3984650302798431e-05  5.3493847236614413e-05  5.3310240690996759e-05  5.3493861752241713e-05  5.4038022981991825e-05  5.4894963020278546e-05  5.6249744695052507e-05  5.8128134971983741e-05  6.0658465331637325e-05  6.3972017457080855e-05  6.8248149591284524e-05  7.3419754711294432e-05  7.9259797758163627e-05  8.6697683707940632e-05  9.4999773110422065e-05  1.0554922751069425e-04  1.1760874699938261e-04  1.3225895621064916e-04  1.4815398489056707e-04  1.6838098878373247e-04  1.9188061418962411e-04  2.1975420589552194e-04  2.4974054191036812e-04  2.8838073297648146e-04  3.2974152594002920e-04  3.8207196560765351e-04  4.4225174890589314e-04  5.0732022780170395e-04  5.9165315574172055e-04  6.8433887911589590e-04  7.9846242725058235e-04  9.1604804864793413e-04  1.0706584329953012e-03  1.2439437110533134e-03  1.4593334508412009e-03  1.6882930150391448e-03  1.9765152376119868e-03  2.2577804223099813e-03  2.6220711240338749e-03  3.0497451487786053e-03  3.5774911665518200e-03  4.1419610259556903e-03  4.7457262604131637e-03  5.4622920765762589e-03  6.2712524024049658e-03  7.2935388068621782e-03  8.4340180383042883e-03  9.6563168001822935e-03  1.1138201488910296e-02  1.2811661403095280e-02  1.5105248537489567e-02  1.8037666563399380e-02  2.2632862467524387e-02  2.2265146531280713e-02  2.1938944622822535e-02  2.1638387265842354e-02  2.1360065207714687e-02  2.1098174006608236e-02  2.0847547628626704e-02  2.0616561430772021e-02  2.0394795511520836e-02  2.0178953834039570e-02  1.9977528332193149e-02  1.9780775267684479e-02  1.9592994967831415e-02  1.9411763751196808e-02  1.9240887633345066e-02  1.9071764417134887e-02  1.8910901908668495e-02  1.8750316276059900e-02  1.8594826619075876e-02  1.8442649689080978e-02  1.8298129267776644e-02  1.8153947043556259e-02  1.8014863292817224e-02  1.7876492696631493e-02  1.7743575456090975e-02  1.7610898854620971e-02  1.7480653429334126e-02  1.7356624960806484e-02  1.7232633724325080e-02  1.7110892096301598e-02  1.6991167447995177e-02  1.6876351642699516e-02  1.6761364095496258e-02  1.6648803832407806e-02  1.6537018792290151e-02  1.6429491918603566e-02  1.6321055256192225e-02  1.6214603138424169e-02  1.6109242391758843e-02  1.6008016370600876e-02  1.5905916568283440e-02  1.5804109335687818e-02  1.5705795572047328e-02  1.5606761371946590e-02  1.5509146057383648e-02  1.5411791684040410e-02  1.5318012324546076e-02  1.5223457546619338e-02  1.5132034687567306e-02  1.5039577651706106e-02  1.4948610464679367e-02  1.4858683804070910e-02  1.4771821570660659e-02  1.4683599347085990e-02  1.4595040584773924e-02  1.4509229999105124e-02  1.4422731090633517e-02  1.4338918948877222e-02  1.4254164139981212e-02  1.4170317652622381e-02  1.4087591309385205e-02  1.4007466488426332e-02  1.3926572183312023e-02  1.3846171657435196e-02  1.3768137377552555e-02  1.3688927166346876e-02  1.3610214594252034e-02  1.3532156866134286e-02  1.3456705564133482e-02  1.3380435882809103e-02  1.3304146765801401e-02  1.3230004998177496e-02  1.3155119161042011e-02  1.3080681338632584e-02  1.3008303284622014e-02  1.2935036837276433e-02  1.2862312689118085e-02  1.2792109350287930e-02  1.2721020968732174e-02  1.2650243824437725e-02  1.2580073038463070e-02  1.2511876616008935e-02  1.2442734567842558e-02  1.2374526063967217e-02  1.2308245003531910e-02  1.2240361837061052e-02  1.2173551357842772e-02  1.2105791624488473e-02  1.2038831587756054e-02  1.1972557478850142e-02  1.1908367238233518e-02  1.1843040793024149e-02  1.1777526348401311e-02  1.1713806911613320e-02  1.1649151134761426e-02  1.1584989093081135e-02  1.1520597696547362e-02  1.1458273198028760e-02  1.1395124236523113e-02  1.1333815431443843e-02  1.1271552707227177e-02  1.1210086398672204e-02  1.1149133860702118e-02  1.1090080907820103e-02  1.1029919560728315e-02  1.0969395223749002e-02  1.0910557383434098e-02  1.0851050727056099e-02  1.0793216320770052e-02  1.0734549602255604e-02  1.0676292388231231e-02  1.0618688776527867e-02  1.0562725036790172e-02  1.0506051622723717e-02  1.0449631861116198e-02  1.0394693922119776e-02  1.0338736149645070e-02  1.0283002069303656e-02  1.0227527351218889e-02  1.0173794745814283e-02  1.0119357595694206e-02  1.0064780196655500e-02  1.0011409900293287e-02  9.9576857957685266e-03  9.9053628124395280e-03  9.8521179872532588e-03  9.7992209238714559e-03  9.7465591395348699e-03  9.6955795854168636e-03  9.6437314345992863e-03  9.5918173616383589e-03  9.5415655860225657e-03  9.4908447631168978e-03  9.4401085933685271e-03  9.3903811550010933e-03  9.3404095147679601e-03  9.2917872537574327e-03  9.2421405459789802e-03  9.1929401805236222e-03  9.1438116298211726e-03  9.0962406055366419e-03  9.0477125348627715e-03  9.0005786173539843e-03  8.9523744011997877e-03  8.9046284818100046e-03  8.8567888653716797e-03  8.8105189261856072e-03  8.7634467035158196e-03  8.7175740391564650e-03  8.6712154350440940e-03  8.6247561291157362e-03  8.5792782299333736e-03  8.5337076073776115e-03  8.4894624406146729e-03  8.4443632320795863e-03  8.3990758515196298e-03  8.3549609918822914e-03  8.3103564755644520e-03  8.2669316882732699e-03  8.2228082041058085e-03  8.1789732428240881e-03  8.1357108339693267e-03  8.0937840208793032e-03  8.0511293445667716e-03  8.0083897430887306e-03  7.9667678364776680e-03  7.9244928548339189e-03  7.8823893316020341e-03  7.8401783825057091e-03  7.7991712788986582e-03  7.7575349801929528e-03  7.7170071914030745e-03  7.6758136552992316e-03  7.6348904011247680e-03  7.5951756248304617e-03  7.5546695513161143e-03  7.5146606573709670e-03  7.4742954880359742e-03  7.4342083360176047e-03  7.3950685789827744e-03  7.3552917785995736e-03  7.3166754489942774e-03  7.2772358735285420e-03  7.2383222779015387e-03  7.1994505945421096e-03  7.1619042051092388e-03  7.1236950849538358e-03  7.0866556824492905e-03  7.0488458540200168e-03  7.0114801435902843e-03  6.9741616003155546e-03  6.9381027417355747e-03  6.9014544093293122e-03  6.8657448941023824e-03  6.8296477854165941e-03  6.7936036648319556e-03  6.7584769475390110e-03  6.7227905443084648e-03  6.6871166507503025e-03  6.6516026126670685e-03  6.6171530494236247e-03  6.5822506025079320e-03  6.5472636144960203e-03  6.5131347685580031e-03  6.4785606398441876e-03  6.4440580266385758e-03  6.4101399989410805e-03  6.3759504811355342e-03  6.3427496734203385e-03  6.3088767068206287e-03  6.2753910892214722e-03  6.2416861455036679e-03  6.2088677656657034e-03  6.1755139536725468e-03  6.1425546049748625e-03  6.1105794778272913e-03  6.0779095641066185e-03  6.0457095974059440e-03  6.0133612095998185e-03  5.9813085794659113e-03  5.9501324009581628e-03  5.9185715810109764e-03  5.8880322252187669e-03  5.8569457371026356e-03  5.8264634805165498e-03  5.7956483460325937e-03  5.7653255732242588e-03  5.7349492005935995e-03  5.7055506692708438e-03  5.6756755695187592e-03  5.6461882979555325e-03  5.6163988537147056e-03  5.5867977270717770e-03  5.5579057830306526e-03  5.5283887454577489e-03  5.4991272038318675e-03  5.4699269524794442e-03  5.4416250904232334e-03  5.4129146688697925e-03  5.3848524638893435e-03  5.3563370662119934e-03  5.3286545818296734e-03  5.3003834672130648e-03  5.2724134512099202e-03  5.2444347886868138e-03  5.2173390697563063e-03  5.1897153160092510e-03  5.1620699721012207e-03  5.1352587340245965e-03  5.1079086209560344e-03  5.0804371758992389e-03  5.0537959365738114e-03  5.0268311862045187e-03  5.0005039763055190e-03  4.9738096898474249e-03  4.9474069554729452e-03  4.9217446743506669e-03  4.8955146012548750e-03  4.8692928466865402e-03  4.8429818187980039e-03  4.8174754750049485e-03  4.7915659003197070e-03  4.7663949843311914e-03  4.7407908814857342e-03  4.7155599067885004e-03  4.6904098905193896e-03  4.6659228725123543e-03  4.6410488451215362e-03  4.6163578730897964e-03  4.5923770460119199e-03  4.5678994715924051e-03  4.5434066999830228e-03  4.5188733233543473e-03  4.4950280729009594e-03  4.4708170467524658e-03  4.4471952277384107e-03  4.4231401026080574e-03  4.3993397381236329e-03  4.3756028694526