<?xml version="1.0"?>
<VTKFile type="UnstructuredGrid"  version="0.1"  >
<UnstructuredGrid>
<Piece  NumberOfPoints="5023" NumberOfCells="7844">
<Points>
<DataArray  type="Float64"  NumberOfComponents="3"  format="ascii">0 0.01 0  0 0 0  0.01 0 0  0.02 0 0  0.03 0 0  0.04 0 0  0.05 0 0  0.06 0 0  0.07000000000000001 0 0  0.08 0 0  0.09 0 0  0.1 0 0  0.11 0 0  0.12 0 0  0.13 0 0  0.14 0 0  0.15 0 0  0.16 0 0  0.17 0 0  0.18 0 0  0.19 0 0  0.2 0 0  0.21 0 0  0.22 0 0  0.23 0 0  0.24 0 0  0.25 0 0  0.26 0 0  0.27 0 0  0.28 0 0  0.29 0 0  0.3 0 0  0.31 0 0  0.32 0 0  0.33 0 0  0.34 0 0  0.35 0 0  0.36 0 0  0.37 0 0  0.38 0 0  0.39 0 0  0.4 0 0  0.41 0 0  0.42 0 0  0.43 0 0  0.44 0 0  0.45 0 0  0.46 0 0  0.47 0 0  0.48 0 0  0.49 0 0  0.5 0 0  0.51 0 0  0.52 0 0  0.53 0 0  0.54 0 0  0.55 0 0  0.5600000000000001 0 0  0.57 0 0  0.58 0 0  0.59 0 0  0.6 0 0  0.61 0 0  0.62 0 0  0.63 0 0  0.64 0 0  0.65 0 0  0.66 0 0  0.67 0 0  0.68 0 0  0.6899999999999999 0 0  0.7 0 0  0.71 0 0  0.72 0 0  0.73 0 0  0.74 0 0  0.75 0 0  0.76 0 0  0.77 0 0  0.78 0 0  0.79 0 0  0.8 0 0  0.8100000000000001 0 0  0.82 0 0  0.83 0 0  0.84 0 0  0.85 0 0  0.86 0 0  0.87 0 0  0.88 0 0  0.89 0 0  0.9 0 0  0.91 0 0  0.92 0 0  0.93 0 0  0.9399999999999999 0 0  0.95 0 0  0.96 0 0  0.97 0 0  0.98 0 0  0.99 0 0  1 0 0  1.01 0 0  1.02 0 0  1.03 0 0  1.04 0 0  1.05 0 0  1.06 0 0  1.07 0 0  1.08 0 0  1.09 0 0  1.1 0 0  1.11 0 0  1.12 0 0  1.13 0 0  1.14 0 0  1.15 0 0  1.16 0 0  1.17 0 0  1.18 0 0  1.19 0 0  1.2 0 0  1.21 0 0  1.22 0 0  1.23 0 0  1.24 0 0  1.25 0 0  1.26 0 0  1.27 0 0  1.28 0 0  1.29 0 0  1.3 0 0  1.31 0 0  1.32 0 0  1.33 0 0  1.34 0 0  1.35 0 0  1.36 0 0  1.37 0 0  1.38 0 0  1.39 0 0  1.4 0 0  1.41 0 0  1.42 0 0  1.43 0 0  1.44 0 0  1.45 0 0  1.46 0 0  1.47 0 0  1.48 0 0  1.49 0 0  1.5 0 0  1.51 0 0  1.52 0 0  1.53 0 0  1.54 0 0  1.55 0 0  1.56 0 0  1.57 0 0  1.58 0 0  1.59 0 0  1.6 0 0  1.61 0 0  1.62 0 0  1.63 0 0  1.64 0 0  1.65 0 0  1.66 0 0  1.67 0 0  1.68 0 0  1.69 0 0  1.7 0 0  1.71 0 0  1.72 0 0  1.73 0 0  1.74 0 0  1.75 0 0  1.76 0 0  1.77 0 0  1.78 0 0  1.79 0 0  1.8 0 0  1.81 0 0  1.82 0 0  1.83 0 0  1.84 0 0  1.85 0 0  1.86 0 0  1.87 0 0  1.88 0 0  1.89 0 0  1.9 0 0  1.91 0 0  1.92 0 0  1.93 0 0  1.94 0 0  1.95 0 0  1.96 0 0  1.97 0 0  1.98 0 0  1.99 0 0  2 0 0  2.01 0 0  2.02 0 0  2.03 0 0  2.04 0 0  2.05 0 0  2.06 0 0  2.07 0 0  2.08 0 0  2.09 0 0  2.1 0 0  2.11 0 0  2.12 0 0  2.13 0 0  2.14 0 0  2.15 0 0  2.16 0 0  2.17 0 0  2.18 0 0  2.19 0 0  2.2 0 0  2.21 0 0  2.22 0 0  2.23 0 0  2.24 0 0  2.25 0 0  2.26 0 0  2.27 0 0  2.28 0 0  2.29 0 0  2.3 0 0  2.31 0 0  2.32 0 0  2.33 0 0  2.34 0 0  2.35 0 0  2.36 0 0  2.37 0 0  2.38 0 0  2.39 0 0  2.4 0 0  2.41 0 0  2.42 0 0  2.43 0 0  2.44 0 0  2.45 0 0  2.46 0 0  2.47 0 0  2.48 0 0  2.49 0 0  2.5 0 0  2.51 0 0  2.52 0 0  2.53 0 0  2.54 0 0  2.55 0 0  2.56 0 0  2.57 0 0  2.58 0 0  2.59 0 0  2.6 0 0  2.61 0 0  2.62 0 0  2.63 0 0  2.64 0 0  2.65 0 0  2.66 0 0  2.67 0 0  2.68 0 0  2.69 0 0  2.7 0 0  2.71 0 0  2.72 0 0  2.73 0 0  2.74 0 0  2.75 0 0  2.76 0 0  2.77 0 0  2.78 0 0  2.79 0 0  2.8 0 0  2.81 0 0  2.82 0 0  2.83 0 0  2.84 0 0  2.85 0 0  2.86 0 0  2.87 0 0  2.88 0 0  2.89 0 0  2.9 0 0  2.91 0 0  2.92 0 0  2.93 0 0  2.94 0 0  2.95 0 0  2.96 0 0  2.97 0 0  2.98 0 0  2.99 0 0  3 0 0  3.01 0 0  3.02 0 0  3.03 0 0  3.04 0 0  3.05 0 0  3.06 0 0  3.07 0 0  3.08 0 0  3.09 0 0  3.1 0 0  3.11 0 0  3.12 0 0  3.13 0 0  3.14 0 0  3.15 0 0  3.16 0 0  3.17 0 0  3.18 0 0  3.19 0 0  3.2 0 0  3.21 0 0  3.22 0 0  3.23 0 0  3.24 0 0  3.25 0 0  3.26 0 0  3.27 0 0  3.28 0 0  3.29 0 0  3.3 0 0  3.31 0 0  3.32 0 0  3.33 0 0  3.34 0 0  3.35 0 0  3.36 0 0  3.37 0 0  3.38 0 0  3.39 0 0  3.4 0 0  3.41 0 0  3.42 0 0  3.43 0 0  3.44 0 0  3.45 0 0  3.46 0 0  3.47 0 0  3.48 0 0  3.49 0 0  3.5 0 0  3.51 0 0  3.52 0 0  3.53 0 0  3.54 0 0  3.55 0 0  3.56 0 0  3.57 0 0  3.58 0 0  3.59 0 0  3.6 0 0  3.61 0 0  3.62 0 0  3.63 0 0  3.64 0 0  3.65 0 0  3.66 0 0  3.67 0 0  3.68 0 0  3.69 0 0  3.7 0 0  3.71 0 0  3.72 0 0  3.73 0 0  3.74 0 0  3.75 0 0  3.76 0 0  3.77 0 0  3.78 0 0  3.79 0 0  3.8 0 0  3.81 0 0  3.82 0 0  3.83 0 0  3.84 0 0  3.85 0 0  3.86 0 0  3.87 0 0  3.88 0 0  3.89 0 0  3.9 0 0  3.91 0 0  3.92 0 0  3.93 0 0  3.94 0 0  3.95 0 0  3.96 0 0  3.97 0 0  3.98 0 0  3.99 0 0  4 0 0  4.01 0 0  4.02 0 0  4.03 0 0  4.04 0 0  4.05 0 0  4.06 0 0  4.07 0 0  4.08 0 0  4.09 0 0  4.1 0 0  4.11 0 0  4.12 0 0  4.13 0 0  4.14 0 0  4.15 0 0  4.16 0 0  4.17 0 0  4.18 0 0  4.19 0 0  4.2 0 0  4.21 0 0  4.22 0 0  4.23 0 0  4.24 0 0  4.25 0 0  4.26 0 0  4.27 0 0  4.28 0 0  4.29 0 0  4.3 0 0  4.31 0 0  4.32 0 0  4.33 0 0  4.34 0 0  4.35 0 0  4.36 0 0  4.37 0 0  4.38 0 0  4.39 0 0  4.4 0 0  4.41 0 0  4.42 0 0  4.43 0 0  4.44 0 0  4.45 0 0  4.46 0 0  4.47 0 0  4.48 0 0  4.49 0 0  4.5 0 0  4.51 -0.06282151815625525 0  4.52 -0.1255810390586241 0  4.53 -0.1882166266370302 0  4.54 -0.2506664671286087 0  4.55 -0.3128689300804606 0  4.56 -0.3747626291714468 0  4.57 -0.4362864827930868 0  4.58 -0.49737977432971 0  4.59 -0.5579822120784577 0  4.6 -0.6180339887498927 0  4.61 -0.6774758404905846 0  4.62 -0.7362491053693565 0  4.63 -0.7942957812695606 0  4.64 -0.8515585831301434 0  4.65 -0.9079809994790955 0  4.66 -0.9635073482034314 0  4.67 -1.018082831500742 0  4.68 -1.071653589957992 0  4.69 -1.124166755704263 0  4.7 -1.175570504584947 0  4.71 -1.225814107305953 0  4.72 -1.274847979497378 0  4.73 -1.322623730647306 0  4.74 -1.369094211857378 0  4.75 -1.414213562373095 0  4.76 -1.457937254842822 0  4.77 -1.500222139260917 0  4.78 -1.541026485551579 0  4.79 -1.580310024751381 0  4.8 -1.618033988749894 0  4.81 -1.654161148549122 0  4.82 -1.688655851004031 0  4.83 -1.721484054007887 0  4.84 -1.752613360087727 0  4.85 -1.782013048376735 0  4.86 -1.80965410493204 0  4.87 -1.835509251367963 0  4.88 -1.859552971776502 0  4.89 -1.88176153790845 0  4.9 -1.902113032590308 0  4.91 -1.920587371353886 0  4.92 -1.937166322257262 0  4.93 -1.951833523877494 0  4.94 -1.964574501457378 0  4.95 -1.975376681190276 0  4.96 -1.984229402628956 0  4.97 -1.99112392920616 0  4.98 -1.996053456856543 0  4.99 -1.999013120731463 0  5 -2 0  5.01 -1.999013120731463 0  5.02 -1.996053456856543 0  5.03 -1.99112392920616 0  5.04 -1.984229402628956 0  5.05 -1.975376681190276 0  5.06 -1.964574501457378 0  5.07 -1.951833523877494 0  5.08 -1.937166322257262 0  5.09 -1.920587371353886 0  5.1 -1.902113032590308 0  5.11 -1.88176153790845 0  5.12 -1.859552971776503 0  5.13 -1.835509251367963 0  5.14 -1.80965410493204 0  5.15 -1.782013048376735 0  5.16 -1.752613360087727 0  5.17 -1.721484054007888 0  5.18 -1.688655851004031 0  5.19 -1.654161148549123 0  5.2 -1.618033988749894 0  5.21 -1.580310024751381 0  5.22 -1.54102648555158 0  5.23 -1.500222139260918 0  5.24 -1.457937254842822 0  5.25 -1.414213562373095 0  5.26 -1.369094211857378 0  5.27 -1.322623730647306 0  5.28 -1.274847979497378 0  5.29 -1.225814107305953 0  5.3 -1.175570504584947 0  5.31 -1.124166755704263 0  5.32 -1.071653589957992 0  5.33 -1.018082831500742 0  5.34 -0.9635073482034312 0  5.35 -0.9079809994790962 0  5.36 -0.8515585831301434 0  5.37 -0.7942957812695605 0  5.38 -0.7362491053693571 0  5.39 -0.6774758404905852 0  5.4 -0.6180339887498926 0  5.41 -0.5579822120784582 0  5.42 -0.4973797743297105 0  5.43 -0.4362864827930872 0  5.44 -0.3747626291714474 0  5.45 -0.3128689300804611 0  5.46 -0.2506664671286091 0  5.47 -0.1882166266370305 0  5.48 -0.1255810390586245 0  5.49 -0.06282151815625558 0  5.5 -2.449293598294706e-16 0  5.51 0 0  5.52 0 0  5.53 0 0  5.54 0 0  5.55 0 0  5.56 0 0  5.57 0 0  5.58 0 0  5.59 0 0  5.6 0 0  5.61 0 0  5.62 0 0  5.63 0 0  5.64 0 0  5.65 0 0  5.66 0 0  5.67 0 0  5.68 0 0  5.69 0 0  5.7 0 0  5.71 0 0  5.72 0 0  5.73 0 0  5.74 0 0  5.75 0 0  5.76 0 0  5.77 0 0  5.78 0 0  5.79 0 0  5.8 0 0  5.81 0 0  5.82 0 0  5.83 0 0  5.84 0 0  5.85 0 0  5.86 0 0  5.87 0 0  5.88 0 0  5.89 0 0  5.9 0 0  5.91 0 0  5.92 0 0  5.93 0 0  5.94 0 0  5.95 0 0  5.96 0 0  5.97 0 0  5.98 0 0  5.99 0 0  6 0 0  6.01 0 0  6.02 0 0  6.03 0 0  6.04 0 0  6.05 0 0  6.06 0 0  6.07 0 0  6.08 0 0  6.09 0 0  6.1 0 0  6.11 0 0  6.12 0 0  6.13 0 0  6.14 0 0  6.15 0 0  6.16 0 0  6.17 0 0  6.18 0 0  6.19 0 0  6.2 0 0  6.21 0 0  6.22 0 0  6.23 0 0  6.24 0 0  6.25 0 0  6.26 0 0  6.27 0 0  6.28 0 0  6.29 0 0  6.3 0 0  6.31 0 0  6.32 0 0  6.33 0 0  6.34 0 0  6.35 0 0  6.36 0 0  6.37 0 0  6.38 0 0  6.39 0 0  6.4 0 0  6.41 0 0  6.42 0 0  6.43 0 0  6.44 0 0  6.45 0 0  6.46 0 0  6.47 0 0  6.48 0 0  6.49 0 0  6.5 0 0  6.51 0 0  6.52 0 0  6.53 0 0  6.54 0 0  6.55 0 0  6.56 0 0  6.57 0 0  6.58 0 0  6.59 0 0  6.6 0 0  6.61 0 0  6.62 0 0  6.63 0 0  6.64 0 0  6.65 0 0  6.66 0 0  6.67 0 0  6.68 0 0  6.69 0 0  6.7 0 0  6.71 0 0  6.72 0 0  6.73 0 0  6.74 0 0  6.75 0 0  6.76 0 0  6.77 0 0  6.78 0 0  6.79 0 0  6.8 0 0  6.81 0 0  6.82 0 0  6.83 0 0  6.84 0 0  6.85 0 0  6.86 0 0  6.87 0 0  6.88 0 0  6.89 0 0  6.9 0 0  6.91 0 0  6.92 0 0  6.93 0 0  6.94 0 0  6.95 0 0  6.96 0 0  6.97 0 0  6.98 0 0  6.99 0 0  7 0 0  7.01 0 0  7.02 0 0  7.03 0 0  7.04 0 0  7.05 0 0  7.06 0 0  7.07 0 0  7.08 0 0  7.09 0 0  7.1 0 0  7.11 0 0  7.12 0 0  7.13 0 0  7.14 0 0  7.15 0 0  7.16 0 0  7.17 0 0  7.18 0 0  7.19 0 0  7.2 0 0  7.21 0 0  7.22 0 0  7.23 0 0  7.24 0 0  7.25 0 0  7.26 0 0  7.27 0 0  7.28 0 0  7.29 0 0  7.3 0 0  7.31 0 0  7.32 0 0  7.33 0 0  7.34 0 0  7.35 0 0  7.36 0 0  7.37 0 0  7.38 0 0  7.39 0 0  7.4 0 0  7.41 0 0  7.42 0 0  7.43 0 0  7.44 0 0  7.45 0 0  7.46 0 0  7.47 0 0  7.48 0 0  7.49 0 0  7.5 0 0  7.51 0 0  7.52 0 0  7.53 0 0  7.54 0 0  7.55 0 0  7.56 0 0  7.57 0 0  7.58 0 0  7.59 0 0  7.6 0 0  7.61 0 0  7.62 0 0  7.63 0 0  7.64 0 0  7.65 0 0  7.66 0 0  7.67 0 0  7.68 0 0  7.69 0 0  7.7 0 0  7.71 0 0  7.72 0 0  7.73 0 0  7.74 0 0  7.75 0 0  7.76 0 0  7.77 0 0  7.78 0 0  7.79 0 0  7.8 0 0  7.81 0 0  7.82 0 0  7.83 0 0  7.84 0 0  7.85 0 0  7.86 0 0  7.87 0 0  7.88 0 0  7.89 0 0  7.9 0 0  7.91 0 0  7.92 0 0  7.93 0 0  7.94 0 0  7.95 0 0  7.96 0 0  7.97 0 0  7.98 0 0  7.99 0 0  8 0 0  8.01 0 0  8.02 0 0  8.029999999999999 0 0  8.039999999999999 0 0  8.0500000
[...]
<PointData  Scalars="f_2207"> 
<DataArray  type="Float64"  Name="f_2207"  format="ascii">1.0000000000000000e+00  9.9999999999999989e-01  9.7105541472679879e-01  9.4875649857775879e-01  9.2927694314466613e-01  9.1187802597673684e-01  8.9639796112874082e-01  8.8202413091441734e-01  8.6856310283676474e-01  8.5599110129145140e-01  8.4417847061220097e-01  8.3293842959768816e-01  8.2220167839627900e-01  8.1193871476392987e-01  8.0207016994323255e-01  7.9264261100755451e-01  7.8355934107046477e-01  7.7475239468713475e-01  7.6619045723009538e-01  7.5793651339883306e-01  7.4990961862074346e-01  7.4212249177345002e-01  7.3455568020316220e-01  7.2725356455914869e-01  7.2015354265187248e-01  7.1316927690525800e-01  7.0640281270551686e-01  6.9979126357630694e-01  6.9333329887268491e-01  6.8700980688900737e-01  6.8085619478013415e-01  6.7481431844331907e-01  6.6889821397797222e-01  6.6309437495137258e-01  6.5743638930306036e-01  6.5186931459062747e-01  6.4636156334843597e-01  6.4098620906417469e-01  6.3570203628437549e-01  6.3053278110640898e-01  6.2544082591068384e-01  6.2046535387681823e-01  6.1555495123021553e-01  6.1071483704602580e-01  6.0593045712606919e-01  6.0123777689961444e-01  5.9659166738129688e-01  5.9202771136568366e-01  5.8751890568302090e-01  5.8308218795390976e-01  5.7871291186921869e-01  5.7443821374028847e-01  5.7021947879502011e-01  5.6603302018713919e-01  5.6191595856622423e-01  5.5784326762641812e-01  5.5384126383698040e-01  5.4987420738441317e-01  5.4595774585316181e-01  5.4207739361843976e-01  5.3826925442877194e-01  5.3449510527483801e-01  5.3077174579634168e-01  5.2708649160858156e-01  5.2346104700732199e-01  5.1986427833379645e-01  5.1629763477915080e-01  5.1278754917956348e-01  5.0929887417224873e-01  5.0584219670912856e-01  5.0241861238033381e-01  4.9904787891226010e-01  4.9570020183789010e-01  4.9240062416667685e-01  4.8912066778048963e-01  4.8587639454926146e-01  4.8266206154801350e-01  4.7949028040646163e-01  4.7633951222121018e-01  4.7323822866926835e-01  4.7015598050430951e-01  4.6710652354887588e-01  4.6407691263227629e-01  4.6106578982284935e-01  4.5809461804584761e-01  4.5513575313159765e-01  4.5221069694842592e-01  4.4931080102078796e-01  4.4644945251626772e-01  4.4360679280630877e-01  4.4080677978215382e-01  4.3802159387184325e-01  4.3526412366468931e-01  4.3252238366714074e-01  4.2979583555993950e-01  4.2710327432215167e-01  4.2441937144567582e-01  4.2175892262281423e-01  4.1911793653639190e-01  4.1651434460183728e-01  4.1392414811680939e-01  4.1134334875260653e-01  4.0879099796215712e-01  4.0625008977552490e-01  4.0373909246557171e-01  4.0123648600939371e-01  3.9874970183060005e-01  3.9627917155382913e-01  3.9384156651854363e-01  3.9141413807781361e-01  3.8899592507899805e-01  3.8660818438704198e-01  3.8423439954585059e-01  3.8189044309271819e-01  3.7955620823491498e-01  3.7723256787898540e-01  3.7493882965381931e-01  3.7265290648184723e-01  3.7037675223468092e-01  3.6811647004341708e-01  3.6588207587006760e-01  3.6365957957495237e-01  3.6146413890163492e-01  3.5927293936845039e-01  3.5710630723524173e-01  3.5494202012281284e-01  3.5279454493528134e-01  3.5065647533919203e-01  3.4852934409430480e-01  3.4642720327466725e-01  3.4433279385478388e-01  3.4226681454778857e-01  3.4020817815371784e-01  3.3816951292402703e-01  3.3614181110431590e-01  3.3412255050739298e-01  3.3212270744826194e-01  3.3013185058940159e-01  3.2816398509393679e-01  3.2620032079372724e-01  3.2425523057624239e-01  3.2231676440870699e-01  3.2039117699225034e-01  3.1847729095512634e-01  3.1658577109318758e-01  3.1470071971115404e-01  3.1282175427985215e-01  3.1095988092156929e-01  3.0910532565232962e-01  3.0727396048818473e-01  3.0544763931406166e-01  3.0363481430085143e-01  3.0182914318885495e-01  3.0004358239341966e-01  2.9826280910774255e-01  2.9649584620502778e-01  2.9473359761857060e-01  2.9297994486925966e-01  2.9124600369663489e-01  2.8951656200449671e-01  2.8779837679866854e-01  2.8609280638353074e-01  2.8440645162590600e-01  2.8272519427084319e-01  2.8105041244502171e-01  2.7939283498516915e-01  2.7773903467146699e-01  2.7610426286182516e-01  2.7447184231079746e-01  2.7285163769314413e-01  2.7124000393249653e-01  2.6964748528617055e-01  2.6805723300151602e-01  2.6647298489730653e-01  2.6490751193317835e-01  2.6334662093715072e-01  2.6179643617937526e-01  2.6025470804346523e-01  2.5873094482799702e-01  2.5721101498445464e-01  2.5569500538452372e-01  2.5419414070138313e-01  2.5270030335912463e-01  2.5122298047613945e-01  2.4974738172844954e-01  2.4827574294056626e-01  2.4681974689895622e-01  2.4536668044357246e-01  2.4392779399531994e-01  2.4249083002377736e-01  2.4106417062878688e-01  2.3964666241493621e-01  2.3824580740612000e-01  2.3684705832597860e-01  2.3545252053088631e-01  2.3407291133658709e-01  2.3269640339263781e-01  2.3133179147577165e-01  2.2997071519240037e-01  2.2861588794698748e-01  2.2727699482093366e-01  2.2594164670063968e-01  2.2461581516836943e-01  2.2329769360866883e-01  2.2199334484795061e-01  2.2068956004417442e-01  2.1938872065667700e-01  2.1810206763358225e-01  2.1681852165311286e-01  2.1554796364725598e-01  2.1428085976752845e-01  2.1302165549884750e-01  2.1177098075355871e-01  2.1053216252727538e-01  2.0929693303021682e-01  2.0807479059737494e-01  2.0685412018484631e-01  2.0564347930662871e-01  2.0443538029925812e-01  2.0323332539159719e-01  2.0203750934229056e-01  2.0085396237809097e-01  1.9967456984972409e-01  1.9850897370287682e-01  1.9734481797433925e-01  1.9618361006265550e-01  1.9503413651327203e-01  1.9388660004503422e-01  1.9274498428578427e-01  1.9160993346298819e-01  1.9048852365890837e-01  1.8936969023692785e-01  1.8825458089799160e-01  1.8715320433347135e-01  1.8605651115684249e-01  1.8496366103851955e-01  1.8388063099314400e-01  1.8280181189652581e-01  1.8173483376848912e-01  1.8066949493857332e-01  1.7961130287972873e-01  1.7855844298945892e-01  1.7751730209870717e-01  1.7647763257670673e-01  1.7544056754614559e-01  1.7441421605017990e-01  1.7338982545430731e-01  1.7237180476015235e-01  1.7135763485986924e-01  1.7035484482804250e-01  1.6935396070748532e-01  1.6836373555699316e-01  1.6737499715316898e-01  1.6639306371522133e-01  1.6541671102331051e-01  1.6445028400886963e-01  1.6348399356535620e-01  1.6251967685557994e-01  1.6156568219741882e-01  1.6061379441654686e-01  1.5967145088408466e-01  1.5873156175238518e-01  1.5779762243269241e-01  1.5687021694800948e-01  1.5595266878426892e-01  1.5503733069946843e-01  1.5412542118037525e-01  1.5322296058116855e-01  1.5232181807768325e-01  1.5142557945511967e-01  1.5053482178550345e-01  1.4965434878074141e-01  1.4877622781938846e-01  1.4790043329963884e-01  1.4703348799017710e-01  1.4616867213592225e-01  1.4530755543830828e-01  1.4445565222802925e-01  1.4360603326304336e-01  1.4276037718494794e-01  1.4192509867573386e-01  1.4109209445563445e-01  1.4026307023823167e-01  1.3943902933501498e-01  1.3862348691954121e-01  1.3780950840203723e-01  1.3700073954375766e-01  1.3620028412551177e-01  1.3539970525824380e-01  1.3460528731065272e-01  1.3381266395313546e-01  1.3302507886699236e-01  1.3224266458844425e-01  1.3146879525153904e-01  1.3069585341738080e-01  1.2992473804262822e-01  1.2916145239938445e-01  1.2839948723954833e-01  1.2764218565466426e-01  1.2688768086114566e-01  1.2614155490225201e-01  1.2539675868951283e-01  1.2465980081970660e-01  1.2392385501728512e-01  1.2319288682757402e-01  1.2246599031821676e-01  1.2174639877832602e-01  1.2102682333471945e-01  1.2030865370683899e-01  1.1959807138022656e-01  1.1888895727721083e-01  1.1818684909623099e-01  1.1748646401749231e-01  1.1679041624856104e-01  1.1609914136569245e-01  1.1541510881042663e-01  1.1473261754853038e-01  1.1405261753596074e-01  1.1337954164908715e-01  1.1270732571989087e-01  1.1203863895804821e-01  1.1137390704955437e-01  1.1071669780587694e-01  1.1006109008566299e-01  1.0940696474787097e-01  1.0875873295781399e-01  1.0811234337533800e-01  1.0747256310037898e-01  1.0683391962386821e-01  1.0619875934387488e-01  1.0556710084910727e-01  1.0494282533597928e-01  1.0431984829599929e-01  1.0369844418983289e-01  1.0308338030702535e-01  1.0247105294385364e-01  1.0186550755803252e-01  1.0126037136235165e-01  1.0065691679759396e-01  1.0005978664797485e-01  9.9463671273605628e-02  9.8870960627361254e-02  9.8281137845406319e-02  9.7697724412246306e-02  9.7114709156550030e-02  9.6533021004305178e-02  9.5956914873897653e-02  9.5382742565205569e-02  9.4814714069770170e-02  9.4246943459808774e-02  9.3680847432396533e-02  9.3121147127413553e-02  9.2562551614231089e-02  9.2005469918904653e-02  9.1454283802446995e-02  9.0904508319396199e-02  9.0356346789226299e-02  8.9813047145528971e-02  8.9270414417917943e-02  8.8729942328984554e-02  8.8194965227834127e-02  8.7660690183139767e-02  8.7129387377541140e-02  8.6601313322348369e-02  8.6078107739005510e-02  8.5556384668588198e-02  8.5040435675031792e-02  8.4525178528706557e-02  8.4013168480717271e-02  8.3502095065886753e-02  8.2992782285665631e-02  8.2487884570271217e-02  8.1982690101276068e-02  8.1481106527264646e-02  8.0981632831995443e-02  8.0487342344074467e-02  7.9994003103615777e-02  7.9502305369943960e-02  7.9015596774618863e-02  7.8529759912728869e-02  7.8049312753028455e-02  7.7569346987282170e-02  7.7092343872714270e-02  7.6617126925236978e-02  7.6146529681928837e-02  7.5675732441999710e-02  7.5205640337980204e-02  7.4739977591152973e-02  7.4274622099675711e-02  7.3813359948928792e-02  7.3352206914914495e-02  7.2893312918216699e-02  7.2436791927913913e-02  7.1984382203021155e-02  7.1531619045467301e-02  7.1082319412021172e-02  7.0632120237100041e-02  7.0184074938175273e-02  6.9737310240189990e-02  6.9294931824841685e-02  6.8852679418954080e-02  6.8411350923412745e-02  6.7973944639335357e-02  6.7536484797684315e-02  6.7099712900443004e-02  6.6666249077327280e-02  6.6232444311125918e-02  6.5799810734294931e-02  6.5367926271764298e-02  6.4938959787910228e-02  6.4510285002619738e-02  6.4085113064403024e-02  6.3658993048842885e-02  6.3233289543597485e-02  6.2810842183796428e-02  6.2387293736819234e-02  6.1963565400487919e-02  6.1542481989941014e-02  6.1120418937482698e-02  6.0699746137767907e-02  6.0278475120240163e-02  5.9859443556375333e-02  5.9438229249669711e-02  5.9018518991882013e-02  5.8596780664880596e-02  5.8176158835301604e-02  5.7752643292503222e-02  5.7328521783111389e-02  5.6902661612924579e-02  5.6477434255555001e-02  5.6048893247756276e-02  5.5618653958531168e-02  5.5187258147404460e-02  5.4752531291340757e-02  5.4316149757799373e-02  5.3873819421884996e-02  5.3427604194100545e-02  5.2975410919375264e-02  5.2518469664136556e-02  5.2053767707107290e-02  5.1581627525280872e-02  5.1097229631288647e-02  5.0601778477485260e-02  5.0091090224131926e-02  4.9562802513510161e-02  4.9012150251857657e-02  4.8428936041842494e-02  4.7803032433694791e-02  4.7088660885271028e-02  4.6279149791625715e-02  4.5333284967103239e-02  4.4011435734640184e-02  3.7299734171413058e-02  3.2707722100593820e-02  2.9107175722816223e-02  2.6115594092937056e-02  2.3567929305730265e-02  2.1348255481100285e-02  1.9436266725063947e-02  1.7722707265428121e-02  1.6181574381797424e-02  1.4840148993944218e-02  1.3592612997539029e-02  1.2483213116008430e-02  1.1459920822724234e-02  1.0533327182482738e-02  9.6968486808635748e-03  8.9556902776695493e-03  8.2640291181386282e-03  7.6411412576535814e-03  7.0624736091802909e-03  6.5360065491050353e-03  6.0577035006761466e-03  5.6337548366016876e-03  5.2383380366869776e-03  4.8827331578002583e-03  4.5555887585663844e-03  4.2656447789370649e-03  3.9979338661997052e-03  3.7537229306934699e-03  3.5335734770448671e-03  3.3402210815764847e-03  3.1636810743209021e-03  3.0017315724774579e-03  2.8590245892176087e-03  2.7310704971321149e-03  2.6203096827520592e-03  2.5203477952296300e-03  2.4333316207913232e-03  2.3564093632406163e-03  2.2914932145457942e-03  2.2344440147064795e-03  2.1872126144998156e-03  2.1463586927483375e-03  2.1122147458152532e-03  2.0853817216902803e-03  2.0650102411091361e-03  2.0486556655558686e-03  2.0370033546723383e-03  2.0293705112645662e-03  2.0251875746465217e-03  2.0236748111773814e-03  2.0251833504159613e-03  2.0296977500229977e-03  2.0370184378860584e-03  2.0484327633098001e-03  2.0642248704686073e-03  2.0852805832838233e-03  2.1123526018249359e-03  2.1464276217551376e-03  2.1872146296188005e-03  2.2343889380520747e-03  2.2913904454142054e-03  2.3562518203671724e-03  2.4331075443290600e-03  2.5200374367381458e-03  2.6198849488242512e-03  2.7304904377823186e-03  2.8582349606465431e-03  3.0006706954903589e-03  3.1601060385564018e-03  3.3341200456758870e-03  3.5323110944886736e-03  3.7473769040673975e-03  3.9896711595030603e-03  4.2537649210259145e-03  4.5400687952538805e-03  4.8626805575489769e-03  5.2110760007417550e-03  5.5974666443624026e-03  6.0094013697035032e-03  6.4719064387614173e-03  6.9725905596654458e-03  7.5232949571982597e-03  8.1092994173190113e-03  8.7538835478120428e-03  9.4244213410598302e-03  1.0168367442355056e-02  1.0973258290989536e-02  1.1846628105188911e-02  1.2762710002621629e-02  1.3721124232389390e-02  1.4747137364254804e-02  1.5827864119760938e-02  1.6990140715349381e-02  1.8196941560121315e-02  1.9434368731040305e-02  2.0730496064165785e-02  2.2061144631573444e-02  2.3487279728844082e-02  2.4986581299768093e-02  2.6657204529352455e-02  2.6548566768858268e-02  2.6428120225525556e-02  2.6294697737102048e-02  2.6157564040288624e-02  2.6017206532962418e-02  2.5875971616461439e-02  2.5734723763189183e-02  2.5592195418011290e-02  2.5449509203144503e-02  2.5307606179831386e-02  2.5165121802355233e-02  2.5023238760529930e-02  2.4881721902785713e-02  2.4741504829930126e-02  2.4601184944759429e-02  2.4461995979635952e-02  2.4322568554224676e-02  2.4183835184845671e-02  2.4045507467164964e-02  2.3908525844679424e-02  2.3771512136387202e-02  2.3635483997928940e-02  2.3499594648555364e-02  2.3364872157166580e-02  2.3230270219855995e-02  2.3096266344596474e-02  2.2963773099011108e-02  2.2831478762575901e-02  2.2699858476605182e-02  2.2568889404479490e-02  2.2439282889226603e-02  2.2309898510113477e-02  2.2181301075340783e-02  2.2053116895829186e-02  2.1926242182395396e-02  2.1799465058468706e-02  2.1673471968582075e-02  2.1548055420699978e-02  2.1423989902256198e-02  2.1300055680299926e-02  2.1176406429242414e-02  2.1053996987748201e-02  2.0931783911285137e-02  2.0810294024999967e-02  2.0689236826797248e-02  2.0569506782738018e-02  2.0449999805638414e-02  2.0331717438150893e-02  2.0213591283648909e-02  2.0096244112155822e-02  1.9979539793062599e-02  1.9864028271429808e-02  1.9748540724810214e-02  1.9633250216752596e-02  1.9519136786144520e-02  1.9405287692722956e-02  1.9292622749693435e-02  1.9180171757010929e-02  1.9068395269633401e-02  1.8957359463711840e-02  1.8847491942923799e-02  1.8737873363927498e-02  1.8628652727582993e-02  1.8520546077161987e-02  1.8412577866254640e-02  1.8305183510313561e-02  1.8198414327606011e-02  1.8092855901360679e-02  1.7987555691851204e-02  1.7882525502342476e-02  1.7778549628560160e-02  1.7674821267858735e-02  1.7571532044597771e-02  1.7469350679613332e-02  1.7367449246633634e-02  1.7265994889844177e-02  1.7165774336679020e-02  1.7065821400152004e-02  1.6966343151841725e-02  1.6867437487967211e-02  1.6769519956121120e-02  1.6671756800742531e-02  1.6574596217554687e-02  1.6478396742861529e-02  1.6382141067554590e-02  1.6286598482714739e-02  1.6191217391131940e-02  1.6096489709903530e-02  1.6002352495224879e-02  1.5909241279007905e-02  1.5816228093074678e-02  1.5723431071179888e-02  1.5631567919590250e-02  1.5539855572389117e-02  1.5448690863196713e-02  1.5357859572157583e-02  1.5268056937215342e-02  1.5178454846082854e-02  1.5089810891205178e-02  1.5001324377354183e-02  1.4913454805109826e-02  1.4826097017359343e-02  1.4739660637463899e-02  1.4653271045483533e-02  1.4567049026218314e-02  1.4481734221808191e-02  1.4396644146215746e-02  1.4312466071752603e-02  1.4228475111597172e-02  1.4144982862966921e-02  1.4062063207875534e-02  1.3980018489654597e-02  1.3898163639408281e-02  1.3816606718849805e-02  1.3735876221517906e-02  1.3655241373449915e-02  1.3575043852681105e-02  1.3495299041923698e-02  1.3416468362257362e-02  1.3337838247191596e-02  1.3259384537167100e-02  1.3181623914033902e-02  1.3104097006562022e-02  1.3027360496200392e-02  1.2950737041791028e-02  1.2874560273959489e-02  1.2798782573465681e-02  1.2723899252023961e-02  1.2649165903053759e-02  1.2574677258166141e-02  1.2501074492826428e-02  1.2427736757421091e-02  1.2354614580146200e-02  1.2282100816630512e-02  1.2209816887620266e-02  1.2138282351864581e-02  1.2066803255314604e-02  1.1995783603702683e-02  1.1925100750626218e-02  1.1855179079250855e-02  1.1785283116069328e-02  1.1716108515226585e-02  1.1646936921470794e-02  1.1578201767033738e-02  1.1509751441398489e-02  1.1442101781904000e-02  1.1374563905712105e-02  1.1307699934170943e-02  1.1241027006008663e-02  1.1174518081212597e-02  1.1108625086364820e-02  1.1043010542698548e-02  1.0978082950214582e-02  1.0913206829416645e-02  1.0848462240158752e-02  1.0784379396540041e-02  1.0720474305267283e-02  1.0657228341286636e-02  1.0594097487891413e-02  1.0531339461582098e-02  1.0469013964826053e-02  1.0407384757683115e-02  1.0345849172815020e-02  1.0284460798459724e-02  1.0223690583377862e-02  1.0163024370775233e-02  1.0102686713729082e-02  1.0042593574026154e-02  9.9831293192264667e-03  9.9237637295833698e-03  9.8650021740236786e-03  9.8063331460925621e-03  9.7479219257613683e-03  9.6901307175752838e-03  9.6323814126796012e-03  9.5750417054821929e-03  9.5178922945546671e-03  9.4609846597056482e-03  9.4046236616182350e-03  9.3483507942313630e-03  9.2926912149615005e-03  9.2370769782254402e-03  9.1818638124533010e-03  9.1269101092133972e-03  9.0725851142565428e-03  9.0183164440511537e-03  8.9646145070556797e-03  8.9109206216592268e-03  8.8575869689813229e-03  8.8045056934494079e-03  8.7520376485177298e-03  8.6996483561221048e-03  8.6477627818755658e-03  8.5960013856378886e-03  8.5443896223379948e-03  8.4932825516270041e-03  8.4422527659996447e-03  8.3914517848756344e-03  8.3409210074018147e-03  8.2909539336058317e-03  8.2411129647797648e-03  8.1913919307883484e-03  8.1421396925653641e-03  8.0929819607578526e-03  8.0439891924687472e-03  7.9953915161807918e-03  7.9469316934047962e-03  7.8989981958462012e-03  7.8511146350062101e-03  7.8035246435525264e-03  7.7560621464147590e-03  7.7090785755940892e-03  7.6621691253337103e-03  7.6155498219655999e-03  7.5694205161798561e-03  7.5233001332963021e-03  7.4775197299343527e-03  7.4319282868746464e-03  7.3865450927187402e-03  7.3416125479208389e-03  7.2967653294563600e-03  7.2524076577385223e-03  7.2080869619310728e-03  7.1641170570457425e-03  7.1202351963076289e-03  7.0766790730638742e-03  7.0332846771878335e-03  6.9903653209808176e-03  6.9474991223752378e-03  6.9049090160067583e-03  6.8624053572014466e-03  6.8200610332941822e-03  6.7781156415207188e-03  6.7361841465860299e-03  6.6945138414065486e-03  6.6530461506258305e-03  6.6119993435742016e-03  6.5709966363007742e-03  6.5303305290546456e-03  6.4896823116790368e-03  6.4494406712000242e-03  6.4091951268681387e-03  6.3691909110609301e-03  6.3293391812081082e-03  6.2899078470665271e-03  6.2504890727743487e-03  6.2111788406957009e-03  6.1722797875631008e-03  6.1333962206921279e-03  6.0946001948056269e-03  6.0562107198716287e-03  6.0178972030780920e-03  5.9799233127499169e-03  5.9420017289664251e-03  5.9042645847066479e-03  5.8668732710480545e-03  5.8294491293427193e-03  5.7921529548031611e-03  5.7549664949459916e-03  5.7181584392032633e-03  5.6813813515794037e-03  5.6449627879584961e-03  5.6085657444412849e-03  5.5724091696770358e-03  5.5364130037283254e-03  5.5007454216315522e-03  5.4651022776705215e-03  5.4295970873205601e-03  5.3944240291928279e-03  5.3592314319537973e-03  5.3241463607258243e-03  5.2891707671851376e-03  5.2545173804078105e-03  5.2198816742206654e-03  5.1855353931467051e-03  5.1511839139434289e-03  5.1170180738772031e-03  5.0829855801180