<?xml version="1.0"?>
<VTKFile type="UnstructuredGrid"  version="0.1"  >
<UnstructuredGrid>
<Piece  NumberOfPoints="5023" NumberOfCells="7844">
<Points>
<DataArray  type="Float64"  NumberOfComponents="3"  format="ascii">0 0.01 0  0 0 0  0.01 0 0  0.02 0 0  0.03 0 0  0.04 0 0  0.05 0 0  0.06 0 0  0.07000000000000001 0 0  0.08 0 0  0.09 0 0  0.1 0 0  0.11 0 0  0.12 0 0  0.13 0 0  0.14 0 0  0.15 0 0  0.16 0 0  0.17 0 0  0.18 0 0  0.19 0 0  0.2 0 0  0.21 0 0  0.22 0 0  0.23 0 0  0.24 0 0  0.25 0 0  0.26 0 0  0.27 0 0  0.28 0 0  0.29 0 0  0.3 0 0  0.31 0 0  0.32 0 0  0.33 0 0  0.34 0 0  0.35 0 0  0.36 0 0  0.37 0 0  0.38 0 0  0.39 0 0  0.4 0 0  0.41 0 0  0.42 0 0  0.43 0 0  0.44 0 0  0.45 0 0  0.46 0 0  0.47 0 0  0.48 0 0  0.49 0 0  0.5 0 0  0.51 0 0  0.52 0 0  0.53 0 0  0.54 0 0  0.55 0 0  0.5600000000000001 0 0  0.57 0 0  0.58 0 0  0.59 0 0  0.6 0 0  0.61 0 0  0.62 0 0  0.63 0 0  0.64 0 0  0.65 0 0  0.66 0 0  0.67 0 0  0.68 0 0  0.6899999999999999 0 0  0.7 0 0  0.71 0 0  0.72 0 0  0.73 0 0  0.74 0 0  0.75 0 0  0.76 0 0  0.77 0 0  0.78 0 0  0.79 0 0  0.8 0 0  0.8100000000000001 0 0  0.82 0 0  0.83 0 0  0.84 0 0  0.85 0 0  0.86 0 0  0.87 0 0  0.88 0 0  0.89 0 0  0.9 0 0  0.91 0 0  0.92 0 0  0.93 0 0  0.9399999999999999 0 0  0.95 0 0  0.96 0 0  0.97 0 0  0.98 0 0  0.99 0 0  1 0 0  1.01 0 0  1.02 0 0  1.03 0 0  1.04 0 0  1.05 0 0  1.06 0 0  1.07 0 0  1.08 0 0  1.09 0 0  1.1 0 0  1.11 0 0  1.12 0 0  1.13 0 0  1.14 0 0  1.15 0 0  1.16 0 0  1.17 0 0  1.18 0 0  1.19 0 0  1.2 0 0  1.21 0 0  1.22 0 0  1.23 0 0  1.24 0 0  1.25 0 0  1.26 0 0  1.27 0 0  1.28 0 0  1.29 0 0  1.3 0 0  1.31 0 0  1.32 0 0  1.33 0 0  1.34 0 0  1.35 0 0  1.36 0 0  1.37 0 0  1.38 0 0  1.39 0 0  1.4 0 0  1.41 0 0  1.42 0 0  1.43 0 0  1.44 0 0  1.45 0 0  1.46 0 0  1.47 0 0  1.48 0 0  1.49 0 0  1.5 0 0  1.51 0 0  1.52 0 0  1.53 0 0  1.54 0 0  1.55 0 0  1.56 0 0  1.57 0 0  1.58 0 0  1.59 0 0  1.6 0 0  1.61 0 0  1.62 0 0  1.63 0 0  1.64 0 0  1.65 0 0  1.66 0 0  1.67 0 0  1.68 0 0  1.69 0 0  1.7 0 0  1.71 0 0  1.72 0 0  1.73 0 0  1.74 0 0  1.75 0 0  1.76 0 0  1.77 0 0  1.78 0 0  1.79 0 0  1.8 0 0  1.81 0 0  1.82 0 0  1.83 0 0  1.84 0 0  1.85 0 0  1.86 0 0  1.87 0 0  1.88 0 0  1.89 0 0  1.9 0 0  1.91 0 0  1.92 0 0  1.93 0 0  1.94 0 0  1.95 0 0  1.96 0 0  1.97 0 0  1.98 0 0  1.99 0 0  2 0 0  2.01 0 0  2.02 0 0  2.03 0 0  2.04 0 0  2.05 0 0  2.06 0 0  2.07 0 0  2.08 0 0  2.09 0 0  2.1 0 0  2.11 0 0  2.12 0 0  2.13 0 0  2.14 0 0  2.15 0 0  2.16 0 0  2.17 0 0  2.18 0 0  2.19 0 0  2.2 0 0  2.21 0 0  2.22 0 0  2.23 0 0  2.24 0 0  2.25 0 0  2.26 0 0  2.27 0 0  2.28 0 0  2.29 0 0  2.3 0 0  2.31 0 0  2.32 0 0  2.33 0 0  2.34 0 0  2.35 0 0  2.36 0 0  2.37 0 0  2.38 0 0  2.39 0 0  2.4 0 0  2.41 0 0  2.42 0 0  2.43 0 0  2.44 0 0  2.45 0 0  2.46 0 0  2.47 0 0  2.48 0 0  2.49 0 0  2.5 0 0  2.51 0 0  2.52 0 0  2.53 0 0  2.54 0 0  2.55 0 0  2.56 0 0  2.57 0 0  2.58 0 0  2.59 0 0  2.6 0 0  2.61 0 0  2.62 0 0  2.63 0 0  2.64 0 0  2.65 0 0  2.66 0 0  2.67 0 0  2.68 0 0  2.69 0 0  2.7 0 0  2.71 0 0  2.72 0 0  2.73 0 0  2.74 0 0  2.75 0 0  2.76 0 0  2.77 0 0  2.78 0 0  2.79 0 0  2.8 0 0  2.81 0 0  2.82 0 0  2.83 0 0  2.84 0 0  2.85 0 0  2.86 0 0  2.87 0 0  2.88 0 0  2.89 0 0  2.9 0 0  2.91 0 0  2.92 0 0  2.93 0 0  2.94 0 0  2.95 0 0  2.96 0 0  2.97 0 0  2.98 0 0  2.99 0 0  3 0 0  3.01 0 0  3.02 0 0  3.03 0 0  3.04 0 0  3.05 0 0  3.06 0 0  3.07 0 0  3.08 0 0  3.09 0 0  3.1 0 0  3.11 0 0  3.12 0 0  3.13 0 0  3.14 0 0  3.15 0 0  3.16 0 0  3.17 0 0  3.18 0 0  3.19 0 0  3.2 0 0  3.21 0 0  3.22 0 0  3.23 0 0  3.24 0 0  3.25 0 0  3.26 0 0  3.27 0 0  3.28 0 0  3.29 0 0  3.3 0 0  3.31 0 0  3.32 0 0  3.33 0 0  3.34 0 0  3.35 0 0  3.36 0 0  3.37 0 0  3.38 0 0  3.39 0 0  3.4 0 0  3.41 0 0  3.42 0 0  3.43 0 0  3.44 0 0  3.45 0 0  3.46 0 0  3.47 0 0  3.48 0 0  3.49 0 0  3.5 0 0  3.51 0 0  3.52 0 0  3.53 0 0  3.54 0 0  3.55 0 0  3.56 0 0  3.57 0 0  3.58 0 0  3.59 0 0  3.6 0 0  3.61 0 0  3.62 0 0  3.63 0 0  3.64 0 0  3.65 0 0  3.66 0 0  3.67 0 0  3.68 0 0  3.69 0 0  3.7 0 0  3.71 0 0  3.72 0 0  3.73 0 0  3.74 0 0  3.75 0 0  3.76 0 0  3.77 0 0  3.78 0 0  3.79 0 0  3.8 0 0  3.81 0 0  3.82 0 0  3.83 0 0  3.84 0 0  3.85 0 0  3.86 0 0  3.87 0 0  3.88 0 0  3.89 0 0  3.9 0 0  3.91 0 0  3.92 0 0  3.93 0 0  3.94 0 0  3.95 0 0  3.96 0 0  3.97 0 0  3.98 0 0  3.99 0 0  4 0 0  4.01 0 0  4.02 0 0  4.03 0 0  4.04 0 0  4.05 0 0  4.06 0 0  4.07 0 0  4.08 0 0  4.09 0 0  4.1 0 0  4.11 0 0  4.12 0 0  4.13 0 0  4.14 0 0  4.15 0 0  4.16 0 0  4.17 0 0  4.18 0 0  4.19 0 0  4.2 0 0  4.21 0 0  4.22 0 0  4.23 0 0  4.24 0 0  4.25 0 0  4.26 0 0  4.27 0 0  4.28 0 0  4.29 0 0  4.3 0 0  4.31 0 0  4.32 0 0  4.33 0 0  4.34 0 0  4.35 0 0  4.36 0 0  4.37 0 0  4.38 0 0  4.39 0 0  4.4 0 0  4.41 0 0  4.42 0 0  4.43 0 0  4.44 0 0  4.45 0 0  4.46 0 0  4.47 0 0  4.48 0 0  4.49 0 0  4.5 0 0  4.51 -0.06282151815625525 0  4.52 -0.1255810390586241 0  4.53 -0.1882166266370302 0  4.54 -0.2506664671286087 0  4.55 -0.3128689300804606 0  4.56 -0.3747626291714468 0  4.57 -0.4362864827930868 0  4.58 -0.49737977432971 0  4.59 -0.5579822120784577 0  4.6 -0.6180339887498927 0  4.61 -0.6774758404905846 0  4.62 -0.7362491053693565 0  4.63 -0.7942957812695606 0  4.64 -0.8515585831301434 0  4.65 -0.9079809994790955 0  4.66 -0.9635073482034314 0  4.67 -1.018082831500742 0  4.68 -1.071653589957992 0  4.69 -1.124166755704263 0  4.7 -1.175570504584947 0  4.71 -1.225814107305953 0  4.72 -1.274847979497378 0  4.73 -1.322623730647306 0  4.74 -1.369094211857378 0  4.75 -1.414213562373095 0  4.76 -1.457937254842822 0  4.77 -1.500222139260917 0  4.78 -1.541026485551579 0  4.79 -1.580310024751381 0  4.8 -1.618033988749894 0  4.81 -1.654161148549122 0  4.82 -1.688655851004031 0  4.83 -1.721484054007887 0  4.84 -1.752613360087727 0  4.85 -1.782013048376735 0  4.86 -1.80965410493204 0  4.87 -1.835509251367963 0  4.88 -1.859552971776502 0  4.89 -1.88176153790845 0  4.9 -1.902113032590308 0  4.91 -1.920587371353886 0  4.92 -1.937166322257262 0  4.93 -1.951833523877494 0  4.94 -1.964574501457378 0  4.95 -1.975376681190276 0  4.96 -1.984229402628956 0  4.97 -1.99112392920616 0  4.98 -1.996053456856543 0  4.99 -1.999013120731463 0  5 -2 0  5.01 -1.999013120731463 0  5.02 -1.996053456856543 0  5.03 -1.99112392920616 0  5.04 -1.984229402628956 0  5.05 -1.975376681190276 0  5.06 -1.964574501457378 0  5.07 -1.951833523877494 0  5.08 -1.937166322257262 0  5.09 -1.920587371353886 0  5.1 -1.902113032590308 0  5.11 -1.88176153790845 0  5.12 -1.859552971776503 0  5.13 -1.835509251367963 0  5.14 -1.80965410493204 0  5.15 -1.782013048376735 0  5.16 -1.752613360087727 0  5.17 -1.721484054007888 0  5.18 -1.688655851004031 0  5.19 -1.654161148549123 0  5.2 -1.618033988749894 0  5.21 -1.580310024751381 0  5.22 -1.54102648555158 0  5.23 -1.500222139260918 0  5.24 -1.457937254842822 0  5.25 -1.414213562373095 0  5.26 -1.369094211857378 0  5.27 -1.322623730647306 0  5.28 -1.274847979497378 0  5.29 -1.225814107305953 0  5.3 -1.175570504584947 0  5.31 -1.124166755704263 0  5.32 -1.071653589957992 0  5.33 -1.018082831500742 0  5.34 -0.9635073482034312 0  5.35 -0.9079809994790962 0  5.36 -0.8515585831301434 0  5.37 -0.7942957812695605 0  5.38 -0.7362491053693571 0  5.39 -0.6774758404905852 0  5.4 -0.6180339887498926 0  5.41 -0.5579822120784582 0  5.42 -0.4973797743297105 0  5.43 -0.4362864827930872 0  5.44 -0.3747626291714474 0  5.45 -0.3128689300804611 0  5.46 -0.2506664671286091 0  5.47 -0.1882166266370305 0  5.48 -0.1255810390586245 0  5.49 -0.06282151815625558 0  5.5 -2.449293598294706e-16 0  5.51 0 0  5.52 0 0  5.53 0 0  5.54 0 0  5.55 0 0  5.56 0 0  5.57 0 0  5.58 0 0  5.59 0 0  5.6 0 0  5.61 0 0  5.62 0 0  5.63 0 0  5.64 0 0  5.65 0 0  5.66 0 0  5.67 0 0  5.68 0 0  5.69 0 0  5.7 0 0  5.71 0 0  5.72 0 0  5.73 0 0  5.74 0 0  5.75 0 0  5.76 0 0  5.77 0 0  5.78 0 0  5.79 0 0  5.8 0 0  5.81 0 0  5.82 0 0  5.83 0 0  5.84 0 0  5.85 0 0  5.86 0 0  5.87 0 0  5.88 0 0  5.89 0 0  5.9 0 0  5.91 0 0  5.92 0 0  5.93 0 0  5.94 0 0  5.95 0 0  5.96 0 0  5.97 0 0  5.98 0 0  5.99 0 0  6 0 0  6.01 0 0  6.02 0 0  6.03 0 0  6.04 0 0  6.05 0 0  6.06 0 0  6.07 0 0  6.08 0 0  6.09 0 0  6.1 0 0  6.11 0 0  6.12 0 0  6.13 0 0  6.14 0 0  6.15 0 0  6.16 0 0  6.17 0 0  6.18 0 0  6.19 0 0  6.2 0 0  6.21 0 0  6.22 0 0  6.23 0 0  6.24 0 0  6.25 0 0  6.26 0 0  6.27 0 0  6.28 0 0  6.29 0 0  6.3 0 0  6.31 0 0  6.32 0 0  6.33 0 0  6.34 0 0  6.35 0 0  6.36 0 0  6.37 0 0  6.38 0 0  6.39 0 0  6.4 0 0  6.41 0 0  6.42 0 0  6.43 0 0  6.44 0 0  6.45 0 0  6.46 0 0  6.47 0 0  6.48 0 0  6.49 0 0  6.5 0 0  6.51 0 0  6.52 0 0  6.53 0 0  6.54 0 0  6.55 0 0  6.56 0 0  6.57 0 0  6.58 0 0  6.59 0 0  6.6 0 0  6.61 0 0  6.62 0 0  6.63 0 0  6.64 0 0  6.65 0 0  6.66 0 0  6.67 0 0  6.68 0 0  6.69 0 0  6.7 0 0  6.71 0 0  6.72 0 0  6.73 0 0  6.74 0 0  6.75 0 0  6.76 0 0  6.77 0 0  6.78 0 0  6.79 0 0  6.8 0 0  6.81 0 0  6.82 0 0  6.83 0 0  6.84 0 0  6.85 0 0  6.86 0 0  6.87 0 0  6.88 0 0  6.89 0 0  6.9 0 0  6.91 0 0  6.92 0 0  6.93 0 0  6.94 0 0  6.95 0 0  6.96 0 0  6.97 0 0  6.98 0 0  6.99 0 0  7 0 0  7.01 0 0  7.02 0 0  7.03 0 0  7.04 0 0  7.05 0 0  7.06 0 0  7.07 0 0  7.08 0 0  7.09 0 0  7.1 0 0  7.11 0 0  7.12 0 0  7.13 0 0  7.14 0 0  7.15 0 0  7.16 0 0  7.17 0 0  7.18 0 0  7.19 0 0  7.2 0 0  7.21 0 0  7.22 0 0  7.23 0 0  7.24 0 0  7.25 0 0  7.26 0 0  7.27 0 0  7.28 0 0  7.29 0 0  7.3 0 0  7.31 0 0  7.32 0 0  7.33 0 0  7.34 0 0  7.35 0 0  7.36 0 0  7.37 0 0  7.38 0 0  7.39 0 0  7.4 0 0  7.41 0 0  7.42 0 0  7.43 0 0  7.44 0 0  7.45 0 0  7.46 0 0  7.47 0 0  7.48 0 0  7.49 0 0  7.5 0 0  7.51 0 0  7.52 0 0  7.53 0 0  7.54 0 0  7.55 0 0  7.56 0 0  7.57 0 0  7.58 0 0  7.59 0 0  7.6 0 0  7.61 0 0  7.62 0 0  7.63 0 0  7.64 0 0  7.65 0 0  7.66 0 0  7.67 0 0  7.68 0 0  7.69 0 0  7.7 0 0  7.71 0 0  7.72 0 0  7.73 0 0  7.74 0 0  7.75 0 0  7.76 0 0  7.77 0 0  7.78 0 0  7.79 0 0  7.8 0 0  7.81 0 0  7.82 0 0  7.83 0 0  7.84 0 0  7.85 0 0  7.86 0 0  7.87 0 0  7.88 0 0  7.89 0 0  7.9 0 0  7.91 0 0  7.92 0 0  7.93 0 0  7.94 0 0  7.95 0 0  7.96 0 0  7.97 0 0  7.98 0 0  7.99 0 0  8 0 0  8.01 0 0  8.02 0 0  8.029999999999999 0 0  8.039999999999999 0 0  8.0500000
[...]
<PointData  Scalars="f_4254"> 
<DataArray  type="Float64"  Name="f_4254"  format="ascii">9.9999999999999989e-01  1.0000000000000000e+00  -3.5632546726759334e-02  2.5454518328109264e-02  1.6466888598091364e-02  1.7392322974476328e-02  1.2562547884877656e-02  1.1630394985515373e-02  9.0769088391294099e-03  9.4202609727503505e-03  7.7252176543871212e-03  7.6144294599005454e-03  6.5719635421541940e-03  6.4232161866236287e-03  5.7113283940317646e-03  5.8094332588653702e-03  5.2962706049123915e-03  5.1422724824368680e-03  4.7231599408789470e-03  4.7808251533524018e-03  4.4219768141019614e-03  4.3355891158052074e-03  4.0388589046023793e-03  4.0657468158323421e-03  3.8773215312533473e-03  3.7019237994910044e-03  3.7249903920093365e-03  3.5550985616033736e-03  3.4951951537843377e-03  3.3628282989428934e-03  3.3805353268125935e-03  3.2565413336015422e-03  3.2062674129981353e-03  3.1001158550316389e-03  3.1134253635309254e-03  3.0367024548630050e-03  2.9401647203317100e-03  2.9434521113556635e-03  2.8498448162144773e-03  2.8467093420993786e-03  2.7605067521191563e-03  2.7730286457741519e-03  2.7047113424306999e-03  2.6843389849768424e-03  2.6176558190013229e-03  2.6274916848529643e-03  2.5565502741963010e-03  2.5537485694439987e-03  2.5033473740183154e-03  2.4750422262646557e-03  2.4250426429651261e-03  2.4303422044459045e-03  2.3959852965698288e-03  2.3525320095424962e-03  2.3487149173350270e-03  2.3066468648216152e-03  2.3117639212403484e-03  2.2702439994840835e-03  2.2594307085528052e-03  2.2195811829343599e-03  2.2256648832952104e-03  2.1867179530023462e-03  2.1781780076580138e-03  2.1416642522785858e-03  2.1454314979608559e-03  2.1142335168671169e-03  2.0903633872602252e-03  2.0941022477906474e-03  2.0693459112379083e-03  2.0535607713348236e-03  2.0238544736393502e-03  2.0275754062369657e-03  1.9950223886869528e-03  1.9985327702842625e-03  1.9711321578371496e-03  1.9605829731155697e-03  1.9382720903177418e-03  1.9372414027937128e-03  1.9098263243786319e-03  1.9135010492800776e-03  1.8914290052336920e-03  1.8880228166939079e-03  1.8684444788970393e-03  1.8520777256328322e-03  1.8549010420988970e-03  1.8290937273157967e-03  1.8227873080238980e-03  1.8029644692898522e-03  1.8023149460578310e-03  1.7800978255817007e-03  1.7831284443923132e-03  1.7653871749135990e-03  1.7627097089320367e-03  1.7476634466515888e-03  1.7349715432807655e-03  1.7370233339735705e-03  1.7197408189191948e-03  1.7125705586608284e-03  1.6952419598699180e-03  1.6971789114363289e-03  1.6849936938841854e-03  1.6697928157464841e-03  1.6693881913115590e-03  1.6521698424311773e-03  1.6538747461456811e-03  1.6402837562720495e-03  1.6310569038295924e-03  1.6170353265280298e-03  1.6188025864310165e-03  1.6065829424343121e-03  1.5914719203185630e-03  1.5913266364890697e-03  1.5748187865486118e-03  1.5764466158308466e-03  1.5636080216960507e-03  1.5518079686989699e-03  1.5533179129038493e-03  1.5440377952013267e-03  1.5338301122713150e-03  1.5224677942190300e-03  1.5210680465572231e-03  1.5074877576889271e-03  1.5098408132682519e-03  1.4946440476597002e-03  1.4969156325510696e-03  1.4841577838843073e-03  1.4817039108021596e-03  1.4698618757262470e-03  1.4601065606460702e-03  1.4606506309192346e-03  1.4457717130049073e-03  1.4479556833488605e-03  1.4353340116498837e-03  1.4335184428096420e-03  1.4250880502900585e-03  1.4156896660181772e-03  1.4139312614700743e-03  1.4029427374397639e-03  1.4045900301514239e-03  1.3922093680397028e-03  1.3917163815722010e-03  1.3828288057334687e-03  1.3776379079743367e-03  1.3679666216396512e-03  1.3688873702061663e-03  1.3610260468099129e-03  1.3524179551450421e-03  1.3508095879273775e-03  1.3399854965026072e-03  1.3415877039864882e-03  1.3311856456253760e-03  1.3287169430058875e-03  1.3183399213112753e-03  1.3194386173597356e-03  1.3100293500072668e-03  1.3091305747292056e-03  1.3000402314426300e-03  1.2928325014413139e-03  1.2937883465482236e-03  1.2847120083628828e-03  1.2786947895157229e-03  1.2710377905120111e-03  1.2718453346111970e-03  1.2639603218168197e-03  1.2568544663125614e-03  1.2571861014256105e-03  1.2466196996822713e-03  1.2481870589003405e-03  1.2389997262484986e-03  1.2356003500141901e-03  1.2268350881667063e-03  1.2280819819882904e-03  1.2220184016406312e-03  1.2132986765139332e-03  1.2143360983477007e-03  1.2066737109544734e-03  1.2031118651554022e-03  1.1953951125414702e-03  1.1963025201252801e-03  1.1903687837716709e-03  1.1830788932036397e-03  1.1817809165623441e-03  1.1738834651802428e-03  1.1749576899642608e-03  1.1688779520851505e-03  1.1611401200641704e-03  1.1621258909303525e-03  1.1528731214007818e-03  1.1538649828424570e-03  1.1456453090830517e-03  1.1414413097374449e-03  1.1350752103423724e-03  1.1360068774843011e-03  1.1309654994126547e-03  1.1233225954710045e-03  1.1242104147829491e-03  1.1158250295655171e-03  1.1155929858442152e-03  1.1083715120774546e-03  1.1024341562272870e-03  1.1033226920009003e-03  1.0958336717718749e-03  1.0923422589398746e-03  1.0863425933175094e-03  1.0872219427975713e-03  1.0820016529063813e-03  1.0745500982919938e-03  1.0754297515845441e-03  1.0671808225582915e-03  1.0675990982448062e-03  1.0611685170591283e-03  1.0567364743705563e-03  1.0514854342892081e-03  1.0511619186162320e-03  1.0438700986310245e-03  1.0448896419657356e-03  1.0375843910717956e-03  1.0372968546511481e-03  1.0319332779598553e-03  1.0279253797819165e-03  1.0216879642174423e-03  1.0213389544543143e-03  1.0138629662743122e-03  1.0148568096273577e-03  1.0105481340839575e-03  1.0035817897462800e-03  1.0042794847301051e-03  9.9845412938956131e-04  9.9416497717683431e-04  9.8848725132675858e-04  9.8930557490503699e-04  9.8406007689025667e-04  9.7703790575322117e-04  9.7762566869594452e-04  9.7270252379102920e-04  9.6724265136539738e-04  9.6625914479857625e-04  9.6006302145650111e-04  9.6092380607708987e-04  9.5493903262458654e-04  9.5241506520964614e-04  9.4666410946924004e-04  9.4743500093883186e-04  9.4285006301708684e-04  9.3722456648294558e-04  9.3783273656052328e-04  9.3232509359693501e-04  9.3016557380636380e-04  9.2358030313883773e-04  9.2450813700706432e-04  9.1729480874367547e-04  9.1817887021873579e-04  9.1205954731307486e-04  9.0924065365430024e-04  9.0441447958419872e-04  9.0512455765393127e-04  9.0089422529837019e-04  8.9481447102741419e-04  8.9553484008025766e-04  8.8875847016895012e-04  8.8911378045220034e-04  8.8376444586230583e-04  8.8014375419337085e-04  8.7564186730631273e-04  8.7611948606947565e-04  8.7131159281140483e-04  8.6690267599224473e-04  8.6747703025022633e-04  8.6268899680997605e-04  8.5931915414302906e-04  8.5432962850980987e-04  8.5489569946782138e-04  8.5081971216716243e-04  8.4558952045485955e-04  8.4599424992922692e-04  8.4123974833447298e-04  8.3687633021573688e-04  8.3734186935908246e-04  8.3195273581194919e-04  8.2755153793224166e-04  8.2818586613860534e-04  8.2385483343956221e-04  8.2044748042728408e-04  8.1604489673860236e-04  8.1656584517866111e-04  8.1135896498186317e-04  8.0804822554739891e-04  8.0878153095704098e-04  8.0332193627040351e-04  8.0292607776028110e-04  7.9811088158450157e-04  7.9497398022784890e-04  7.9125521001563231e-04  7.9181210584113688e-04  7.8806553992489549e-04  7.8345946163893381e-04  7.8395634209976945e-04  7.7946670829009436e-04  7.7771328028359535e-04  7.7237651182631003e-04  7.7313134172036601e-04  7.6724249661877845e-04  7.6796678837362433e-04  7.6293247502757535e-04  7.6060656051854579e-04  7.5661293528429992e-04  7.5720098946604911e-04  7.5369444849963084e-04  7.4864942837108426e-04  7.4924812465565732e-04  7.4360846869113244e-04  7.4390482504663310e-04  7.3944140620757005e-04  7.3642154790310777e-04  7.3266862533067029e-04  7.3306659679376750e-04  7.2906224266685150e-04  7.2539036515467095e-04  7.2586848193078766e-04  7.2188447788272406e-04  7.1908088271417105e-04  7.1493058480403746e-04  7.1539898134745914e-04  7.1204802393274843e-04  7.0778557490443271e-04  7.0755164833406455e-04  7.0278124523949297e-04  7.0326443931382305e-04  6.9925858634295208e-04  6.9662922359224556e-04  6.9275004757408921e-04  6.9328692206835406e-04  6.8983846001373318e-04  6.8548335122855727e-04  6.8490798744616109e-04  6.8051875892970247e-04  6.8112692013140694e-04  6.7822407330744145e-04  6.7399186109975528e-04  6.7448952808785839e-04  6.7050869008200792e-04  6.6833488633748824e-04  6.6469816607635885e-04  6.6521788377206872e-04  6.6241019913312177e-04  6.5813280152225424e-04  6.5780853782881974e-04  6.5349330418938473e-04  6.5410477940739547e-04  6.5090675249894784e-04  6.4682461574773747e-04  6.4733317527312137e-04  6.4405668093334731e-04  6.4015634407462905e-04  6.4049060035705158e-04  6.3739443624150549e-04  6.3388393363082263e-04  6.3417904089561633e-04  6.3030428728058500e-04  6.2722111510914039e-04  6.2764983597647162e-04  6.2378058334549549e-04  6.2131471440199501e-04  6.1809708760346427e-04  6.1784395037323755e-04  6.1357680313474795e-04  6.1416728845521012e-04  6.1052853376311524e-04  6.0997687424210441e-04  6.0663212315790398e-04  6.0382994305490040e-04  6.0432034145152416e-04  5.9984165146541996e-04  5.9874358525246823e-04  5.9487216435934165e-04  5.9527213027624323e-04  5.9189685281004379e-04  5.8878514308463700e-04  5.8901482768844318e-04  5.8475117258934223e-04  5.8536575150426302e-04  5.8190183820036460e-04  5.8067888180288337e-04  5.7739223544281957e-04  5.7784700422876961e-04  5.7543875946478745e-04  5.7190969846931245e-04  5.7233766962480333e-04  5.6845647804237918e-04  5.6885471501090436e-04  5.6568213245958559e-04  5.6369770632258087e-04  5.6130794796269558e-04  5.6174754030985396e-04  5.5827222246983732e-04  5.5876447656722644e-04  5.5561139942354493e-04  5.5443861152436953e-04  5.5120440111703533e-04  5.5161147182856821e-04  5.4916353164388525e-04  5.4663116011584312e-04  5.4693836980255757e-04  5.4464648007059718e-04  5.4211548067900921e-04  5.4237369485892416e-04  5.4000947036379374e-04  5.3872174340335443e-04  5.3620657932369623e-04  5.3599164751792501e-04  5.3334764262714712e-04  5.3372249811085067e-04  5.3183456266559480e-04  5.2971068530273586e-04  5.3000254527629527e-04  5.2851339563416051e-04  5.2639275313506450e-04  5.2661155130911594e-04  5.2482218534791408e-04  5.2458359140163124e-04  5.2312065895158434e-04  5.2335568003239376e-04  5.2201281840754744e-04  5.2208558665870538e-04  5.2110308246061134e-04  5.2122503182604782e-04  5.2047226910891377e-04  5.2038495526338796e-04  5.2072648209601253e-04  5.2065251785925941e-04  5.2142240113531345e-04  5.2234070801584576e-04  5.2270456822254023e-04  5.2485539383182204e-04  5.2445764097825852e-04  5.2764312642769292e-04  5.2854889381964080e-04  5.3383229872758036e-04  5.3430330009399140e-04  5.4253602683762949e-04  5.4089272583628058e-04  5.5335759735221357e-04  5.5244473005819849e-04  5.6850248113871147e-04  5.6626864553233134e-04  5.8449265632770132e-04  5.9556972070669409e-04  6.3378174486969873e-04  6.2733398750655070e-04  6.8529581339410613e-04  6.8733250962135523e-04  1.6917967300537260e-03  1.0219600408995450e-04  3.1389107842883169e-04  1.2009926386421629e-04  1.7765028265043754e-04  9.8672381515329521e-05  7.8690125577104644e-05  8.9614467143165892e-05  5.9257708296759811e-05  4.1038037279898951e-05  5.0390624668721233e-05  2.4231381243322568e-05  3.1816538293523879e-05  1.6252285102432649e-05  1.7700518422584738e-05  1.0562595184669350e-05  1.3447358316838943e-05  6.9489827193241260e-06  8.3608384230780158e-06  4.3049083233784347e-06  4.5663613828936188e-06  2.6250264270016984e-06  3.3837055606388616e-06  1.6880310682514015e-06  1.9563440107535413e-06  9.7076286647655478e-07  1.2592955230440725e-06  7.9317250910213587e-07  5.5453797817173515e-07  4.0813922657611401e-07  4.6462419403936020e-07  3.1155880596890275e-07  1.9478233909706621e-07  1.9412903946994784e-07  1.1421114213708815e-07  1.4097469415486727e-07  7.3931426903521375e-08  7.6785301109869308e-08  4.2659499301570565e-08  5.1447730428418397e-08  2.6867884565514058e-08  3.2360878598684583e-08  1.9973877966532271e-08  1.3004627100677626e-08  1.2260969519780105e-08  1.2499282862004828e-08  8.2364095405260514e-09  7.3555038821816955e-09  6.7198471238175193e-09  6.6614646518482128e-09  6.0072452849205736e-09  6.3569298913137386e-09  7.4482589961658538e-09  7.4321617168220820e-09  8.8937213311069183e-09  1.0237042699192114e-08  1.1943108441669863e-08  1.4283774255199810e-08  1.9882155771024094e-08  3.2257696184325347e-08  2.6805444080539297e-08  5.1147081783237877e-08  4.2470316061941558e-08  7.6131039235152696e-08  7.3464455270801275e-08  1.3857787640715345e-07  1.1350506416483403e-07  1.8641129757999306e-07  2.0767103112224590e-07  3.7748247275361647e-07  2.8088462763941677e-07  6.0651715259698257e-07  5.2330564668358044e-07  7.4355579921472320e-07  1.2477480763792370e-06  9.5219927906962854e-07  1.9366348698783524e-06  1.7193052858737990e-06  3.3792082201973285e-06  2.5553590678451424e-06  4.8350774446961175e-06  4.1224272955756175e-06  8.4243361049397861e-06  6.4780133471230501e-06  1.3975101291924544e-05  1.1117691815961160e-05  1.7232824727462772e-05  1.6594650393628949e-05  2.9429839071531659e-05  3.5221982321280593e-05  3.8492614898300751e-05  5.2082544757301226e-05  5.1291544343650017e-05  7.6994690724805845e-05  1.0316049150806046e-04  1.0603361903441876e-04  1.6497671914078872e-04  1.2596429272331776e-04  3.0651685949022222e-04  4.3631160265171667e-05  1.5423320534421771e-03  4.8642682154534812e-04  5.6769761797894399e-04  5.0352925725239968e-04  4.9215199432084725e-04  4.6571583338399740e-04  4.4405110298348258e-04  4.4640076151706215e-04  4.3011843426338784e-04  4.1440625933571895e-04  4.1655798392239187e-04  4.0215788174656605e-04  3.9743566824028002e-04  3.8734483742682566e-04  3.8891046037343102e-04  3.7860394309889881e-04  3.8001590300580597e-04  3.7178922022457558e-04  3.6904267833946325e-04  3.6233860159566610e-04  3.6338667093747072e-04  3.5657072584136098e-04  3.5635730826210309e-04  3.5013620110504703e-04  3.5055199848108969e-04  3.4544182703831992e-04  3.4150768127540882e-04  3.4210102925249196e-04  3.3816321424893049e-04  3.3596163542956705e-04  3.3227431404641628e-04  3.3270838212590993e-04  3.2905265999869370e-04  3.2792776619005053e-04  3.2449367820627854e-04  3.2497078881427052e-04  3.2164050011288301e-04  3.2026941011461884e-04  3.1722866607353001e-04  3.1762988591701097e-04  3.1528007464887663e-04  3.1243660899438322e-04  3.1273786022447639e-04  3.1006034920393088e-04  3.0902832397456770e-04  3.0598325106979089e-04  3.0639569415595846e-04  3.0316270811724301e-04  3.0354448410475378e-04  3.0087859700618247e-04  2.9964992974738756e-04  2.9759285945778446e-04  2.9788554774652713e-04  2.9620299963700823e-04  2.9363147270698557e-04  2.9381221155553845e-04  2.9105755650378040e-04  2.9133305317475297e-04  2.8917002344164169e-04  2.8777576198882863e-04  2.8595325918773690e-04  2.8614436938279356e-04  2.8428334307009049e-04  2.8256891038511904e-04  2.8279213400064866e-04  2.8094484896546784e-04  2.7969785287331502e-04  2.7780748698918951e-04  2.7802105373116566e-04  2.7650329399872065e-04  2.7455863539603190e-04  2.7470828394098609e-04  2.7297596320921964e-04  2.7137075252975970e-04  2.7153597818021624e-04  2.6963803598368532e-04  2.6805441177276166e-04  2.6827863595262237e-04  2.6673902585488165e-04  2.6557134630600897e-04  2.6403582499889535e-04  2.6421826860008362e-04  2.6240080599062736e-04  2.6125267858600500e-04  2.6151107486596496e-04  2.5958446782233912e-04  2.5947867423916260e-04  2.5767045950103416e-04  2.5669883422125216e-04  2.5528263495071512e-04  2.5549032100629715e-04  2.5418294370479333e-04  2.5247211005905882e-04  2.5265364157709368e-04  2.5103750802737935e-04  2.5039097391802329e-04  2.4844571928266113e-04  2.4871028306224473e-04  2.4662843135874677e-04  2.4687521161611620e-04  2.4514248935992899e-04  2.4433757177951660e-04  2.4297949915220022e-04  2.4317316570946393e-04  2.4205679450236249e-04  2.4034299104509928e-04  2.4046408274089052e-04  2.3859621476318514e-04  2.3878205087445443e-04  2.3733262311829054e-04  2.3632410608988546e-04  2.3508098718550514e-04  2.3521256480732528e-04  2.3390441348644577e-04  2.3270597246840698e-04  2.3286604538604044e-04  2.3152806597621906e-04  2.3066733543952977e-04  2.2924899085274004e-04  2.2940726314105500e-04  2.2831730039377622e-04  2.2693976809043341e-04  2.2681930316984241e-04  2.2530948644082299e-04  2.2548102911451785e-04  2.2411030327932420e-04  2.2334632029219394e-04  2.2203290075836733e-04  2.2221837853563878e-04  2.2108856834016175e-04  2.1961039270272669e-04  2.1974451139128708e-04  2.1869394298710680e-04  2.1750378181156264e-04  2.1729327745338773e-04  2.1592286264796381e-04  2.1612262551420734e-04  2.1474285093261538e-04  2.1414484171752694e-04  2.1279855181741134e-04  2.1304417675920028e-04  2.1140188865685617e-04  2.1164949592998526e-04  2.1026009190434065e-04  2.0975980724700748e-04  2.0831390753183119e-04  2.0855370252429928e-04  2.0696848887034495e-04  2.0697616393888340e-04  2.0602658827415961e-04  2.0481779041950601e-04  2.0458529655339230e-04  2.0330491288118448e-04  2.0347202261439165e-04  2.0248890073221317e-04  2.0119770445546235e-04  2.0124991266231695e-04  1.9978950084373627e-04  1.9993717752059064e-04  1.9875384807066347e-04  1.9788895177738657e-04  1.9698253394751820e-04  1.9711860892063663e-04  1.9617912620548039e-04  1.9504244903491242e-04  1.9516038182602243e-04  1.9409196281574108e-04  1.9354457419820347e-04  1.9224502717776531e-04  1.9240807157238079e-04  1.9093644629063585e-04  1.9108969602932527e-04  1.8989917697242290e-04  1.8893509380696086e-04  1.8910284969151064e-04  1.8788140989396403e-04  1.8766177246839553e-04  1.8656113417772318e-04  1.8565811815707511e-04  1.8570249273636689e-04  1.8423632458197637e-04  1.8445859017121455e-04  1.8312458426021630e-04  1.8268768383787159e-04  1.8143810801580124e-04  1.8165869513284716e-04  1.8023124558507790e-04  1.8044518125290453e-04  1.7926069038322641e-04  1.7882364521545227e-04  1.7766422134328180e-04  1.7785715810122456e-04  1.7657924186526483e-04  1.7659403535518468e-04  1.7576117077096741e-04  1.7482394383541857e-04  1.7491751179389117e-04  1.7404822199026428e-04  1.7336196816867931e-04  1.7237268855620344e-04  1.7247644881775661e-04  1.7169002457255195e-04  1.7065893185573417e-04  1.7073169404973086e-04  1.6982460336067211e-04  1.6901949070722907e-04  1.6884658454299360e-04  1.6769376973042763e-04  1.6786659056579239e-04  1.6674201069179982e-04  1.6647218985955663e-04  1.6530782066343701e-04  1.6543676222947440e-04  1.6430284316055189e-04  1.6353400147677019e-04  1.6368951060821823e-04  1.6256731963566954e-04  1.6233757804630538e-04  1.6139160482031095e-04  1.6061407312299106e-04  1.6065150755211670e-04  1.5946257837058295e-04  1.5964360849387473e-04  1.5855145351022134e-04  1.5850038199710995e-04  1.5751204781381753e-04  1.5726485685556182e-04  1.5627561578095549e-04  1.5641854653737007e-04  1.5548694647710734e-04  1.5534349461711184e-04  1.5451227949683617e-04  1.5381223564896534e-04  1.5392150939807313e-04  1.5294212785748907e-04  1.5251166764335136e-04  1.5155330118766849e-04  1.5168329634068542e-04  1.5064355595707888e-04  1.5069422440338763e-04  1.4959363431350044e-04  1.4975629143326797e-04  1.4880645675054223e-04  1.4846204206840074e-04  1.4754709655379815e-04  1.4768132625666300e-04  1.4694211215620232e-04  1.4608046475852906e-04  1.4620399226203114e-04  1.4550129415984034e-04  1.4449315446490716e-04  1.4460820659528188e-04  1.4356307976705197e-04  1.4362379096140380e-04  1.4269735052150007e-04  1.4207546139644833e-04  1.4218301287617692e-04  1.4143274488528408e-04  1.4099013406374011e-04  1.4001271475083251e-04  1.4015165703463130e-04  1.3905894695852782e-04  1.3919391429730022e-04  1.3824693141783293e-04  1.3793423116218218e-04  1.3714265028019141e-04  1.3723097389875893e-04  1.3640536434702681e-04  1.3576565933933474e-04  1.3586754378826452e-04  1.3517863975326990e-04  1.3471857584713577e-04  1.3383221193302933e-04  1.3394398804606917e-04  1.3293353435392201e-04  1.3304292051850923e-04  1.3215763671608433e-04  1.3180039728200038e-04  1.310164135227