<?xml version="1.0"?>
<VTKFile type="UnstructuredGrid"  version="0.1"  >
<UnstructuredGrid>
<Piece  NumberOfPoints="5023" NumberOfCells="7844">
<Points>
<DataArray  type="Float64"  NumberOfComponents="3"  format="ascii">0 0.01 0  0 0 0  0.01 0 0  0.02 0 0  0.03 0 0  0.04 0 0  0.05 0 0  0.06 0 0  0.07000000000000001 0 0  0.08 0 0  0.09 0 0  0.1 0 0  0.11 0 0  0.12 0 0  0.13 0 0  0.14 0 0  0.15 0 0  0.16 0 0  0.17 0 0  0.18 0 0  0.19 0 0  0.2 0 0  0.21 0 0  0.22 0 0  0.23 0 0  0.24 0 0  0.25 0 0  0.26 0 0  0.27 0 0  0.28 0 0  0.29 0 0  0.3 0 0  0.31 0 0  0.32 0 0  0.33 0 0  0.34 0 0  0.35 0 0  0.36 0 0  0.37 0 0  0.38 0 0  0.39 0 0  0.4 0 0  0.41 0 0  0.42 0 0  0.43 0 0  0.44 0 0  0.45 0 0  0.46 0 0  0.47 0 0  0.48 0 0  0.49 0 0  0.5 0 0  0.51 0 0  0.52 0 0  0.53 0 0  0.54 0 0  0.55 0 0  0.5600000000000001 0 0  0.57 0 0  0.58 0 0  0.59 0 0  0.6 0 0  0.61 0 0  0.62 0 0  0.63 0 0  0.64 0 0  0.65 0 0  0.66 0 0  0.67 0 0  0.68 0 0  0.6899999999999999 0 0  0.7 0 0  0.71 0 0  0.72 0 0  0.73 0 0  0.74 0 0  0.75 0 0  0.76 0 0  0.77 0 0  0.78 0 0  0.79 0 0  0.8 0 0  0.8100000000000001 0 0  0.82 0 0  0.83 0 0  0.84 0 0  0.85 0 0  0.86 0 0  0.87 0 0  0.88 0 0  0.89 0 0  0.9 0 0  0.91 0 0  0.92 0 0  0.93 0 0  0.9399999999999999 0 0  0.95 0 0  0.96 0 0  0.97 0 0  0.98 0 0  0.99 0 0  1 0 0  1.01 0 0  1.02 0 0  1.03 0 0  1.04 0 0  1.05 0 0  1.06 0 0  1.07 0 0  1.08 0 0  1.09 0 0  1.1 0 0  1.11 0 0  1.12 0 0  1.13 0 0  1.14 0 0  1.15 0 0  1.16 0 0  1.17 0 0  1.18 0 0  1.19 0 0  1.2 0 0  1.21 0 0  1.22 0 0  1.23 0 0  1.24 0 0  1.25 0 0  1.26 0 0  1.27 0 0  1.28 0 0  1.29 0 0  1.3 0 0  1.31 0 0  1.32 0 0  1.33 0 0  1.34 0 0  1.35 0 0  1.36 0 0  1.37 0 0  1.38 0 0  1.39 0 0  1.4 0 0  1.41 0 0  1.42 0 0  1.43 0 0  1.44 0 0  1.45 0 0  1.46 0 0  1.47 0 0  1.48 0 0  1.49 0 0  1.5 0 0  1.51 0 0  1.52 0 0  1.53 0 0  1.54 0 0  1.55 0 0  1.56 0 0  1.57 0 0  1.58 0 0  1.59 0 0  1.6 0 0  1.61 0 0  1.62 0 0  1.63 0 0  1.64 0 0  1.65 0 0  1.66 0 0  1.67 0 0  1.68 0 0  1.69 0 0  1.7 0 0  1.71 0 0  1.72 0 0  1.73 0 0  1.74 0 0  1.75 0 0  1.76 0 0  1.77 0 0  1.78 0 0  1.79 0 0  1.8 0 0  1.81 0 0  1.82 0 0  1.83 0 0  1.84 0 0  1.85 0 0  1.86 0 0  1.87 0 0  1.88 0 0  1.89 0 0  1.9 0 0  1.91 0 0  1.92 0 0  1.93 0 0  1.94 0 0  1.95 0 0  1.96 0 0  1.97 0 0  1.98 0 0  1.99 0 0  2 0 0  2.01 0 0  2.02 0 0  2.03 0 0  2.04 0 0  2.05 0 0  2.06 0 0  2.07 0 0  2.08 0 0  2.09 0 0  2.1 0 0  2.11 0 0  2.12 0 0  2.13 0 0  2.14 0 0  2.15 0 0  2.16 0 0  2.17 0 0  2.18 0 0  2.19 0 0  2.2 0 0  2.21 0 0  2.22 0 0  2.23 0 0  2.24 0 0  2.25 0 0  2.26 0 0  2.27 0 0  2.28 0 0  2.29 0 0  2.3 0 0  2.31 0 0  2.32 0 0  2.33 0 0  2.34 0 0  2.35 0 0  2.36 0 0  2.37 0 0  2.38 0 0  2.39 0 0  2.4 0 0  2.41 0 0  2.42 0 0  2.43 0 0  2.44 0 0  2.45 0 0  2.46 0 0  2.47 0 0  2.48 0 0  2.49 0 0  2.5 0 0  2.51 0 0  2.52 0 0  2.53 0 0  2.54 0 0  2.55 0 0  2.56 0 0  2.57 0 0  2.58 0 0  2.59 0 0  2.6 0 0  2.61 0 0  2.62 0 0  2.63 0 0  2.64 0 0  2.65 0 0  2.66 0 0  2.67 0 0  2.68 0 0  2.69 0 0  2.7 0 0  2.71 0 0  2.72 0 0  2.73 0 0  2.74 0 0  2.75 0 0  2.76 0 0  2.77 0 0  2.78 0 0  2.79 0 0  2.8 0 0  2.81 0 0  2.82 0 0  2.83 0 0  2.84 0 0  2.85 0 0  2.86 0 0  2.87 0 0  2.88 0 0  2.89 0 0  2.9 0 0  2.91 0 0  2.92 0 0  2.93 0 0  2.94 0 0  2.95 0 0  2.96 0 0  2.97 0 0  2.98 0 0  2.99 0 0  3 0 0  3.01 0 0  3.02 0 0  3.03 0 0  3.04 0 0  3.05 0 0  3.06 0 0  3.07 0 0  3.08 0 0  3.09 0 0  3.1 0 0  3.11 0 0  3.12 0 0  3.13 0 0  3.14 0 0  3.15 0 0  3.16 0 0  3.17 0 0  3.18 0 0  3.19 0 0  3.2 0 0  3.21 0 0  3.22 0 0  3.23 0 0  3.24 0 0  3.25 0 0  3.26 0 0  3.27 0 0  3.28 0 0  3.29 0 0  3.3 0 0  3.31 0 0  3.32 0 0  3.33 0 0  3.34 0 0  3.35 0 0  3.36 0 0  3.37 0 0  3.38 0 0  3.39 0 0  3.4 0 0  3.41 0 0  3.42 0 0  3.43 0 0  3.44 0 0  3.45 0 0  3.46 0 0  3.47 0 0  3.48 0 0  3.49 0 0  3.5 0 0  3.51 0 0  3.52 0 0  3.53 0 0  3.54 0 0  3.55 0 0  3.56 0 0  3.57 0 0  3.58 0 0  3.59 0 0  3.6 0 0  3.61 0 0  3.62 0 0  3.63 0 0  3.64 0 0  3.65 0 0  3.66 0 0  3.67 0 0  3.68 0 0  3.69 0 0  3.7 0 0  3.71 0 0  3.72 0 0  3.73 0 0  3.74 0 0  3.75 0 0  3.76 0 0  3.77 0 0  3.78 0 0  3.79 0 0  3.8 0 0  3.81 0 0  3.82 0 0  3.83 0 0  3.84 0 0  3.85 0 0  3.86 0 0  3.87 0 0  3.88 0 0  3.89 0 0  3.9 0 0  3.91 0 0  3.92 0 0  3.93 0 0  3.94 0 0  3.95 0 0  3.96 0 0  3.97 0 0  3.98 0 0  3.99 0 0  4 0 0  4.01 0 0  4.02 0 0  4.03 0 0  4.04 0 0  4.05 0 0  4.06 0 0  4.07 0 0  4.08 0 0  4.09 0 0  4.1 0 0  4.11 0 0  4.12 0 0  4.13 0 0  4.14 0 0  4.15 0 0  4.16 0 0  4.17 0 0  4.18 0 0  4.19 0 0  4.2 0 0  4.21 0 0  4.22 0 0  4.23 0 0  4.24 0 0  4.25 0 0  4.26 0 0  4.27 0 0  4.28 0 0  4.29 0 0  4.3 0 0  4.31 0 0  4.32 0 0  4.33 0 0  4.34 0 0  4.35 0 0  4.36 0 0  4.37 0 0  4.38 0 0  4.39 0 0  4.4 0 0  4.41 0 0  4.42 0 0  4.43 0 0  4.44 0 0  4.45 0 0  4.46 0 0  4.47 0 0  4.48 0 0  4.49 0 0  4.5 0 0  4.51 -0.06282151815625525 0  4.52 -0.1255810390586241 0  4.53 -0.1882166266370302 0  4.54 -0.2506664671286087 0  4.55 -0.3128689300804606 0  4.56 -0.3747626291714468 0  4.57 -0.4362864827930868 0  4.58 -0.49737977432971 0  4.59 -0.5579822120784577 0  4.6 -0.6180339887498927 0  4.61 -0.6774758404905846 0  4.62 -0.7362491053693565 0  4.63 -0.7942957812695606 0  4.64 -0.8515585831301434 0  4.65 -0.9079809994790955 0  4.66 -0.9635073482034314 0  4.67 -1.018082831500742 0  4.68 -1.071653589957992 0  4.69 -1.124166755704263 0  4.7 -1.175570504584947 0  4.71 -1.225814107305953 0  4.72 -1.274847979497378 0  4.73 -1.322623730647306 0  4.74 -1.369094211857378 0  4.75 -1.414213562373095 0  4.76 -1.457937254842822 0  4.77 -1.500222139260917 0  4.78 -1.541026485551579 0  4.79 -1.580310024751381 0  4.8 -1.618033988749894 0  4.81 -1.654161148549122 0  4.82 -1.688655851004031 0  4.83 -1.721484054007887 0  4.84 -1.752613360087727 0  4.85 -1.782013048376735 0  4.86 -1.80965410493204 0  4.87 -1.835509251367963 0  4.88 -1.859552971776502 0  4.89 -1.88176153790845 0  4.9 -1.902113032590308 0  4.91 -1.920587371353886 0  4.92 -1.937166322257262 0  4.93 -1.951833523877494 0  4.94 -1.964574501457378 0  4.95 -1.975376681190276 0  4.96 -1.984229402628956 0  4.97 -1.99112392920616 0  4.98 -1.996053456856543 0  4.99 -1.999013120731463 0  5 -2 0  5.01 -1.999013120731463 0  5.02 -1.996053456856543 0  5.03 -1.99112392920616 0  5.04 -1.984229402628956 0  5.05 -1.975376681190276 0  5.06 -1.964574501457378 0  5.07 -1.951833523877494 0  5.08 -1.937166322257262 0  5.09 -1.920587371353886 0  5.1 -1.902113032590308 0  5.11 -1.88176153790845 0  5.12 -1.859552971776503 0  5.13 -1.835509251367963 0  5.14 -1.80965410493204 0  5.15 -1.782013048376735 0  5.16 -1.752613360087727 0  5.17 -1.721484054007888 0  5.18 -1.688655851004031 0  5.19 -1.654161148549123 0  5.2 -1.618033988749894 0  5.21 -1.580310024751381 0  5.22 -1.54102648555158 0  5.23 -1.500222139260918 0  5.24 -1.457937254842822 0  5.25 -1.414213562373095 0  5.26 -1.369094211857378 0  5.27 -1.322623730647306 0  5.28 -1.274847979497378 0  5.29 -1.225814107305953 0  5.3 -1.175570504584947 0  5.31 -1.124166755704263 0  5.32 -1.071653589957992 0  5.33 -1.018082831500742 0  5.34 -0.9635073482034312 0  5.35 -0.9079809994790962 0  5.36 -0.8515585831301434 0  5.37 -0.7942957812695605 0  5.38 -0.7362491053693571 0  5.39 -0.6774758404905852 0  5.4 -0.6180339887498926 0  5.41 -0.5579822120784582 0  5.42 -0.4973797743297105 0  5.43 -0.4362864827930872 0  5.44 -0.3747626291714474 0  5.45 -0.3128689300804611 0  5.46 -0.2506664671286091 0  5.47 -0.1882166266370305 0  5.48 -0.1255810390586245 0  5.49 -0.06282151815625558 0  5.5 -2.449293598294706e-16 0  5.51 0 0  5.52 0 0  5.53 0 0  5.54 0 0  5.55 0 0  5.56 0 0  5.57 0 0  5.58 0 0  5.59 0 0  5.6 0 0  5.61 0 0  5.62 0 0  5.63 0 0  5.64 0 0  5.65 0 0  5.66 0 0  5.67 0 0  5.68 0 0  5.69 0 0  5.7 0 0  5.71 0 0  5.72 0 0  5.73 0 0  5.74 0 0  5.75 0 0  5.76 0 0  5.77 0 0  5.78 0 0  5.79 0 0  5.8 0 0  5.81 0 0  5.82 0 0  5.83 0 0  5.84 0 0  5.85 0 0  5.86 0 0  5.87 0 0  5.88 0 0  5.89 0 0  5.9 0 0  5.91 0 0  5.92 0 0  5.93 0 0  5.94 0 0  5.95 0 0  5.96 0 0  5.97 0 0  5.98 0 0  5.99 0 0  6 0 0  6.01 0 0  6.02 0 0  6.03 0 0  6.04 0 0  6.05 0 0  6.06 0 0  6.07 0 0  6.08 0 0  6.09 0 0  6.1 0 0  6.11 0 0  6.12 0 0  6.13 0 0  6.14 0 0  6.15 0 0  6.16 0 0  6.17 0 0  6.18 0 0  6.19 0 0  6.2 0 0  6.21 0 0  6.22 0 0  6.23 0 0  6.24 0 0  6.25 0 0  6.26 0 0  6.27 0 0  6.28 0 0  6.29 0 0  6.3 0 0  6.31 0 0  6.32 0 0  6.33 0 0  6.34 0 0  6.35 0 0  6.36 0 0  6.37 0 0  6.38 0 0  6.39 0 0  6.4 0 0  6.41 0 0  6.42 0 0  6.43 0 0  6.44 0 0  6.45 0 0  6.46 0 0  6.47 0 0  6.48 0 0  6.49 0 0  6.5 0 0  6.51 0 0  6.52 0 0  6.53 0 0  6.54 0 0  6.55 0 0  6.56 0 0  6.57 0 0  6.58 0 0  6.59 0 0  6.6 0 0  6.61 0 0  6.62 0 0  6.63 0 0  6.64 0 0  6.65 0 0  6.66 0 0  6.67 0 0  6.68 0 0  6.69 0 0  6.7 0 0  6.71 0 0  6.72 0 0  6.73 0 0  6.74 0 0  6.75 0 0  6.76 0 0  6.77 0 0  6.78 0 0  6.79 0 0  6.8 0 0  6.81 0 0  6.82 0 0  6.83 0 0  6.84 0 0  6.85 0 0  6.86 0 0  6.87 0 0  6.88 0 0  6.89 0 0  6.9 0 0  6.91 0 0  6.92 0 0  6.93 0 0  6.94 0 0  6.95 0 0  6.96 0 0  6.97 0 0  6.98 0 0  6.99 0 0  7 0 0  7.01 0 0  7.02 0 0  7.03 0 0  7.04 0 0  7.05 0 0  7.06 0 0  7.07 0 0  7.08 0 0  7.09 0 0  7.1 0 0  7.11 0 0  7.12 0 0  7.13 0 0  7.14 0 0  7.15 0 0  7.16 0 0  7.17 0 0  7.18 0 0  7.19 0 0  7.2 0 0  7.21 0 0  7.22 0 0  7.23 0 0  7.24 0 0  7.25 0 0  7.26 0 0  7.27 0 0  7.28 0 0  7.29 0 0  7.3 0 0  7.31 0 0  7.32 0 0  7.33 0 0  7.34 0 0  7.35 0 0  7.36 0 0  7.37 0 0  7.38 0 0  7.39 0 0  7.4 0 0  7.41 0 0  7.42 0 0  7.43 0 0  7.44 0 0  7.45 0 0  7.46 0 0  7.47 0 0  7.48 0 0  7.49 0 0  7.5 0 0  7.51 0 0  7.52 0 0  7.53 0 0  7.54 0 0  7.55 0 0  7.56 0 0  7.57 0 0  7.58 0 0  7.59 0 0  7.6 0 0  7.61 0 0  7.62 0 0  7.63 0 0  7.64 0 0  7.65 0 0  7.66 0 0  7.67 0 0  7.68 0 0  7.69 0 0  7.7 0 0  7.71 0 0  7.72 0 0  7.73 0 0  7.74 0 0  7.75 0 0  7.76 0 0  7.77 0 0  7.78 0 0  7.79 0 0  7.8 0 0  7.81 0 0  7.82 0 0  7.83 0 0  7.84 0 0  7.85 0 0  7.86 0 0  7.87 0 0  7.88 0 0  7.89 0 0  7.9 0 0  7.91 0 0  7.92 0 0  7.93 0 0  7.94 0 0  7.95 0 0  7.96 0 0  7.97 0 0  7.98 0 0  7.99 0 0  8 0 0  8.01 0 0  8.02 0 0  8.029999999999999 0 0  8.039999999999999 0 0  8.0500000
[...]
<PointData  Scalars="f_1050"> 
<DataArray  type="Float64"  Name="f_1050"  format="ascii">1.0000000000000000e+00  1.0000000000000000e+00  9.8610785549439972e-01  9.7556767967033686e-01  9.6642458042609714e-01  9.5830123370502296e-01  9.5116022084579643e-01  9.4455866557019852e-01  9.3841313126404202e-01  9.3268926526604479e-01  9.2735767544340064e-01  9.2229477763540813e-01  9.1748705103205275e-01  9.1289949926116987e-01  9.0850587504310654e-01  9.0431150187903919e-01  9.0029493378406733e-01  8.9640513504613140e-01  8.9263277715248535e-01  8.8899460892253679e-01  8.8547284060733678e-01  8.8205891308100715e-01  8.7875014313948407e-01  8.7555577562971487e-01  8.7246216832486845e-01  8.6941931300911535e-01  8.6646791839806392e-01  8.6359430725122555e-01  8.6078572549147436e-01  8.5803643911676042e-01  8.5535615578539637e-01  8.5273224196380248e-01  8.5016123135747379e-01  8.4763929135029492e-01  8.4517552318624822e-01  8.4275798911054789e-01  8.4036482448962324e-01  8.3802573750399745e-01  8.3572970617792652e-01  8.3347984007024822e-01  8.3126560781398817e-01  8.2909392622953204e-01  8.2695359314210071e-01  8.2483916603110641e-01  8.2274732582747545e-01  8.2068900250483434e-01  8.1865431492774388e-01  8.1665040793216692e-01  8.1467306697454289e-01  8.1272540636982626e-01  8.1080598353946842e-01  8.0892167089937850e-01  8.0706397439557287e-01  8.0521900676410707e-01  8.0339973474430360e-01  8.0159895609796394e-01  7.9982384465704559e-01  7.9806648747987829e-01  7.9632687836775495e-01  7.9460172060035106e-01  7.9290231958488244e-01  7.9122015933871948e-01  7.8955617651474963e-01  7.8790753236518940e-01  7.8627948422932070e-01  7.8466505293378630e-01  7.8305954919474219e-01  7.8147298264294096e-01  7.7989742036230403e-01  7.7833361748927210e-01  7.7678198284286615e-01  7.7524776011805985e-01  7.7372417849828223e-01  7.7221566974647715e-01  7.7071681750903676e-01  7.6922957071154774e-01  7.6775254772243018e-01  7.6628952244606063e-01  7.6483456069479228e-01  7.6339561007252288e-01  7.6196561567380416e-01  7.6054593483031030e-01  7.5913461920146763e-01  7.5772854463803962e-01  7.5633548751273982e-01  7.5494897524405802e-01  7.5357369822684395e-01  7.5220773943365937e-01  7.5085487235384385e-01  7.4950943679038085e-01  7.4817731916421193e-01  7.4685190985847905e-01  7.4553458030035380e-01  7.4422336514406706e-01  7.4291599195466185e-01  7.4161897290376300e-01  7.4032621446948543e-01  7.3903999342138149e-01  7.3775925866533887e-01  7.3648900674419016e-01  7.3522339008327242e-01  7.3395966277517088e-01  7.3270392500578663e-01  7.3145099006151559e-01  7.3020628813294952e-01  7.2896449117004070e-01  7.2772610744919797e-01  7.2649132069643085e-01  7.2526556463656877e-01  7.2404312584115027e-01  7.2282248739224519e-01  7.2161056548428171e-01  7.2040220159744772e-01  7.1920216011193394e-01  7.1800529956892201e-01  7.1681069817698018e-01  7.1562460509642456e-01  7.1444131576614500e-01  7.1326045063576615e-01  7.1208366359910691e-01  7.1091477504354361e-01  7.0974929435828982e-01  7.0859088752530552e-01  7.0743354161672944e-01  7.0628221493463905e-01  7.0513154609711093e-01  7.0398468059665364e-01  7.0284033945285806e-01  7.0169821600965354e-01  7.0056373682661943e-01  6.9943164318685380e-01  6.9830833028823824e-01  6.9718807155556095e-01  6.9607321518540988e-01  6.9496196735051474e-01  6.9385215839407821e-01  6.9274786977971026e-01  6.9164542310780108e-01  6.9054925315209303e-01  6.8945413161172175e-01  6.8836352780733401e-01  6.8727481795358603e-01  6.8618920649945692e-01  6.8510638158329429e-01  6.8402995508639941e-01  6.8295540804679211e-01  6.8188150082588239e-01  6.8081220899570360e-01  6.7974401090067160e-01  6.7868177867184742e-01  6.7762025479234000e-01  6.7656144778115412e-01  6.7550334894210107e-01  6.7445038836925553e-01  6.7339805214273740e-01  6.7234825117511332e-01  6.7129912206117082e-01  6.7025114221280391e-01  6.6920843989823908e-01  6.6816644543148929e-01  6.6712686395198750e-01  6.6609014953810119e-01  6.6505892810784684e-01  6.6402888703536600e-01  6.6299985949491291e-01  6.6197596831209304e-01  6.6095252598258214e-01  6.5993486734531992e-01  6.5891780661805976e-01  6.5790414585013057e-01  6.5689276172572075e-01  6.5588698252234678e-01  6.5488149290699260e-01  6.5387676840891895e-01  6.5287767046822964e-01  6.5187967434558003e-01  6.5088397231819684e-01  6.4988986029085072e-01  6.4890108042326089e-01  6.4791305203354488e-01  6.4692508169275698e-01  6.4594124442763601e-01  6.4495826508365173e-01  6.4397949957349188e-01  6.4300005279343564e-01  6.4201974371900872e-01  6.4104363430624034e-01  6.4006746670639425e-01  6.3909459958165271e-01  6.3812160542709795e-01  6.3715049959673142e-01  6.3618108938522178e-01  6.3521639017173748e-01  6.3425139766644856e-01  6.3328589665089785e-01  6.3232465212737388e-01  6.3136354728568778e-01  6.3040530711653353e-01  6.2944778018890779e-01  6.2849132919447459e-01  6.2753996765513975e-01  6.2658929810524044e-01  6.2564021789354307e-01  6.2469208878141780e-01  6.2374740607024759e-01  6.2280139061776285e-01  6.2185444021173508e-01  6.2091199934370755e-01  6.1997001398092799e-01  6.1903173497683028e-01  6.1809437124619038e-01  6.1715891672280188e-01  6.1622554547462383e-01  6.1529586306816253e-01  6.1436615246795478e-01  6.1344031351621575e-01  6.1251395052689339e-01  6.1158999305476125e-01  6.1066619668772104e-01  6.0974352389256625e-01  6.0882208754917710e-01  6.0790457807860709e-01  6.0698736641661588e-01  6.0607411422906976e-01  6.0515998549395678e-01  6.0424483424953379e-01  6.0333272540007665e-01  6.0241977480898257e-01  6.0150733372045317e-01  6.0059605074501854e-01  5.9968977636219256e-01  5.9878404387453821e-01  5.9787821304965261e-01  5.9697758827532199e-01  5.9607847324855123e-01  5.9517971515753509e-01  5.9428440281908146e-01  5.9338958595744618e-01  5.9249866155774233e-01  5.9160737419505594e-01  5.9071751896401348e-01  5.8982839182954883e-01  5.8894330275048268e-01  5.8805789983681145e-01  5.8717169490352050e-01  5.8628911321253219e-01  5.8540639461107680e-01  5.8452497706815643e-01  5.8364391223473078e-01  5.8276722208105114e-01  5.8189020545675285e-01  5.8101706938945852e-01  5.8014377360222602e-01  5.7927171544545930e-01  5.7840031414103099e-01  5.7753131363698995e-01  5.7666031640953963e-01  5.7578790159849214e-01  5.7491928809349824e-01  5.7405073913768456e-01  5.7318550993173090e-01  5.7232102372451021e-01  5.7145823184783806e-01  5.7059730512666995e-01  5.6973999484164584e-01  5.6888273138970891e-01  5.6802578451722729e-01  5.6717223115876081e-01  5.6631822943523646e-01  5.6546530151851448e-01  5.6461376267080254e-01  5.6376624557702593e-01  5.6291893577619923e-01  5.6207144115438989e-01  5.6122734071676672e-01  5.6038336580507553e-01  5.5953979542889809e-01  5.5869995711932174e-01  5.5786043827703513e-01  5.5702107090824171e-01  5.5618611067667834e-01  5.5535151127950966e-01  5.5451753231557011e-01  5.5368450746499775e-01  5.5285483023343407e-01  5.5202497614793500e-01  5.5119604159419822e-01  5.5037016817126305e-01  5.4954300739517414e-01  5.4871764428102066e-01  5.4789223042812651e-01  5.4706797043305777e-01  5.4624513288446652e-01  5.4542602476387969e-01  5.4460661835311319e-01  5.4378647607363551e-01  5.4296972874694927e-01  5.4215289671080225e-01  5.4133728442718809e-01  5.4052196301535249e-01  5.3971034990078737e-01  5.3889809274296085e-01  5.3808897664691002e-01  5.3727925741664084e-01  5.3647025080529109e-01  5.3566144246965386e-01  5.3485444911123670e-01  5.3404518687094793e-01  5.3323430689729134e-01  5.3242651483642767e-01  5.3161833539639813e-01  5.3081281907798394e-01  5.3000756589365905e-01  5.2920355326830615e-01  5.2840096277000503e-01  5.2760143237925916e-01  5.2680163293087789e-01  5.2600195250035986e-01  5.2520513600451812e-01  5.2440759681859284e-01  5.2361076676567264e-01  5.2281493074844365e-01  5.2202249779812249e-01  5.2122990123432356e-01  5.2043685032839204e-01  5.1964637569966765e-01  5.1885538497126316e-01  5.1806731068730005e-01  5.1727878504519009e-01  5.1649069188247698e-01  5.1570321534315189e-01  5.1491924375133102e-01  5.1413496001284797e-01  5.1334975834249641e-01  5.1256749583175565e-01  5.1178548535327195e-01  5.1100639562124406e-01  5.1022613071796841e-01  5.0944506590269334e-01  5.0866667170091329e-01  5.0788749010450474e-01  5.0710872066482326e-01  5.0633024261915871e-01  5.0555473203045520e-01  5.0477819722536588e-01  5.0400056133951154e-01  5.0322539299331659e-01  5.0244981605467354e-01  5.0167654384149007e-01  5.0090157341830832e-01  5.0012551369225267e-01  4.9935189054165741e-01  4.9857705024380800e-01  4.9780151740098827e-01  4.9702802652286054e-01  4.9625343275892281e-01  4.9547787387891745e-01  4.9470376272957606e-01  4.9392811241164264e-01  4.9315204125087098e-01  4.9237770798002650e-01  4.9160164630155900e-01  4.9082544770622805e-01  4.9004928281511068e-01  4.8927484810925720e-01  4.8849921248805384e-01  4.8772588795931432e-01  4.8695106887197082e-01  4.8617611422280355e-01  4.8539962311603302e-01  4.8462249940732749e-01  4.8384634127532777e-01  4.8306752946078207e-01  4.8228906336651006e-01  4.8150968748336054e-01  4.8073204580107437e-01  4.7995281151077679e-01  4.7917296212420019e-01  4.7839455689640120e-01  4.7761390110151813e-01  4.7683458303503889e-01  4.7605262493638484e-01  4.7526964484254275e-01  4.7448459769415041e-01  4.7369953473788257e-01  4.7291043853868259e-01  4.7211811822908983e-01  4.7132588300442607e-01  4.7052963536966136e-01  4.6973297111400508e-01  4.6893245094695557e-01  4.6812908338196624e-01  4.6732328668970646e-01  4.6651664339551469e-01  4.6570517547491130e-01  4.6489182638582793e-01  4.6407309028066357e-01  4.6325035648608504e-01  4.6242252205088524e-01  4.6159233109710668e-01  4.6075578764094210e-01  4.5991600615844291e-01  4.5907251402182869e-01  4.5822147831543114e-01  4.5736612675785160e-01  4.5650634158322889e-01  4.5563850332374883e-01  4.5476366850847927e-01  4.5388121554173866e-01  4.5299291884681875e-01  4.5209594390448227e-01  4.5119278315206707e-01  4.5027871092787880e-01  4.4935674375688395e-01  4.4842759628381718e-01  4.4748647804723646e-01  4.4653501471791790e-01  4.4557423031949112e-01  4.4459998739250106e-01  4.4361392474969269e-01  4.4261446662975162e-01  4.4160264961735102e-01  4.4057313527776493e-01  4.3953069577951831e-01  4.3847064396265856e-01  4.3739540882388750e-01  4.3629986210039029e-01  4.3518107419472957e-01  4.3403606140342943e-01  4.3286565429314738e-01  4.3166441450015919e-01  4.3044414709527989e-01  4.2919403522812033e-01  4.2791094145909891e-01  4.2659135333697740e-01  4.2522876933142717e-01  4.2382312656667614e-01  4.2236790198169433e-01  4.2086005446967367e-01  4.1929398601825330e-01  4.1765604224680880e-01  4.1593784450059146e-01  4.1413057341505360e-01  4.1222621740038129e-01  4.1019540591017462e-01  4.0803036031460671e-01  4.0565882419015115e-01  4.0302930199439879e-01  3.9988885936966201e-01  3.9622251452073726e-01  3.9182631007069385e-01  3.8544181001560118e-01  3.5006282462893434e-01  3.2331361825213628e-01  3.0066883298217972e-01  2.8062494725619153e-01  2.6264095925221737e-01  2.4625872563230333e-01  2.3140271563986073e-01  2.1767084977582093e-01  2.0493696386229207e-01  1.9333957471786362e-01  1.8237820894327827e-01  1.7227157381559571e-01  1.6276804936156289e-01  1.5391028213368940e-01  1.4569429094549999e-01  1.3814673553960119e-01  1.3102329651942451e-01  1.2442757609371267e-01  1.1822170083990462e-01  1.1244301163807754e-01  1.0708650838306862e-01  1.0219272559444474e-01  9.7598224481431919e-02  9.3372776820039499e-02  8.9442262725730470e-02  8.5869909583195819e-02  8.2549049050328699e-02  7.9484928153666048e-02  7.6679570075668238e-02  7.4163866904350617e-02  7.1856763340751681e-02  6.9727964262797981e-02  6.7825375838407781e-02  6.6106627740506602e-02  6.4596921147314357e-02  6.3234698341707238e-02  6.2038550205626222e-02  6.0978155774363066e-02  6.0074386721377555e-02  5.9281198747233595e-02  5.8619817562955749e-02  5.8049158691061101e-02  5.7571518371213548e-02  5.7194249800293410e-02  5.6906825083098737e-02  5.6676919769391307e-02  5.6512856574526656e-02  5.6405223385812830e-02  5.6346152132656153e-02  5.6324889866257867e-02  5.6346122312844721e-02  5.6409703025607077e-02  5.6513169773438003e-02  5.6674196320205976e-02  5.6896884988296599e-02  5.7193355609232686e-02  5.7573580361223752e-02  5.8050542098040926e-02  5.8620570331314806e-02  5.9281502533657146e-02  6.0074450855159126e-02  6.0978001958734082e-02  6.2038188846357437e-02  6.3234062484851861e-02  6.4595898206164237e-02  6.6104788608868995e-02  6.7822202427340147e-02  6.9722193458762710e-02  7.1827218574880447e-02  7.4119810252574470e-02  7.6680173123102074e-02  7.9449323501543087e-02  8.2508335008196501e-02  8.5805800866235543e-02  8.9359138897863760e-02  9.3268361516853360e-02  9.7454673521202170e-02  1.0200577947143642e-01  1.0684203110292785e-01  1.1212474609300604e-01  1.1777547407376526e-01  1.2385461768403228e-01  1.3028254991783600e-01  1.3718901102086162e-01  1.4439104558785673e-01  1.5217431064513834e-01  1.6046009542455381e-01  1.6925869398263149e-01  1.7845160617890693e-01  1.8802730120424663e-01  1.9814432025699297e-01  2.0871786363045841e-01  2.1988428730191473e-01  2.3145438097824972e-01  2.4337964655425345e-01  2.5587767821809959e-01  2.6895169258980534e-01  2.8292365872892283e-01  2.9823669671096575e-01  3.1673199915571632e-01  3.1840211063758878e-01  3.1956267222167090e-01  3.2021885470475386e-01  3.2067995854477832e-01  3.2098050209281614e-01  3.2121003139256837e-01  3.2135935369230678e-01  3.2142909722287821e-01  3.2146683805549098e-01  3.2146167094699507e-01  3.2141355418971501e-01  3.2133572787927234e-01  3.2123133302478452e-01  3.2110809491751785e-01  3.2096539147184122e-01  3.2080716316775287e-01  3.2063270479757766e-01  3.2044382350625528e-01  3.2024064348167941e-01  3.2002515765949230e-01  3.1979627905986874e-01  3.1955771109004755e-01  3.1930875710755507e-01  3.1905064621942658e-01  3.1878256371698055e-01  3.1850858620813566e-01  3.1822735347664627e-01  3.1793747204442585e-01  3.1764146690848205e-01  3.1733919303707936e-01  3.1703184533110468e-01  3.1671807020609155e-01  3.1639989359447812e-01  3.1607711315998438e-01  3.1575023144426356e-01  3.1541768686052135e-01  3.1508101811538114e-01  3.1474017461001758e-01  3.1439662460714174e-01  3.1404867955273180e-01  3.1369790510450885e-01  3.1334457751162609e-01  3.1298719041068285e-01  3.1262662842043160e-01  3.1226270078657375e-01  3.1189717207279943e-01  3.1152835723560396e-01  3.1115776784472871e-01  3.1078396918712553e-01  3.1040794482255257e-01  3.1002973005687939e-01  3.0965054125177538e-01  3.0926846096564109e-01  3.0888411985893316e-01  3.0849899645164053e-01  3.0811126578370795e-01  3.0772293182417748e-01  3.0733232299391988e-01  3.0694042825180151e-01  3.0654738546698090e-01  3.0615408711773079e-01  3.0575888821648112e-01  3.0536277367688242e-01  3.0496644466453821e-01  3.0456811376349657e-01  3.0416865974564911e-01  3.0376822542153642e-01  3.0336807244451952e-01  3.0296639634295147e-01  3.0256376481643849e-01  3.0216141650883066e-01  3.0175779098983135e-01  3.0135348565664050e-01  3.0094959748665012e-01  3.0054449096955199e-01  3.0013864779065641e-01  2.9973368215233442e-01  2.9932764340145196e-01  2.9892097468295903e-01  2.9851377019431119e-01  2.9810714061968807e-01  2.9769935572410527e-01  2.9729117729307120e-01  2.9688345760920448e-01  2.9647404253861848e-01  2.9606446333239445e-01  2.9565368604233799e-01  2.9524254146605483e-01  2.9483107899632865e-01  2.9442047711183994e-01  2.9400869128740237e-01  2.9359592534387746e-01  2.9318399465216072e-01  2.9277114459649550e-01  2.9235812484175888e-01  2.9194455056046997e-01  2.9153236592689469e-01  2.9111967195262350e-01  2.9070795030577928e-01  2.9029560998141568e-01  2.8988324077824074e-01  2.8947067033377077e-01  2.8905916334884196e-01  2.8864663954851966e-01  2.8823320587865403e-01  2.8782110095981384e-01  2.8740836793836588e-01  2.8699707133380042e-01  2.8658544159608540e-01  2.8617411163736878e-01  2.8576324398113778e-01  2.8535371295971385e-01  2.8494381004251662e-01  2.8453383594757459e-01  2.8412509460487279e-01  2.8371573744349088e-01  2.8330656446839331e-01  2.8289762753526893e-01  2.8249023189048261e-01  2.8208253516703113e-01  2.8167447885530883e-01  2.8126751699215319e-01  2.8086014481536986e-01  2.8045403495018384e-01  2.8004739640604320e-01  2.7964091613113290e-01  2.7923457125246176e-01  2.7882992418688590e-01  2.7842496542597700e-01  2.7801959994451214e-01  2.7761585653394777e-01  2.7721203373511827e-01  2.7680794272866588e-01  2.7640482025707758e-01  2.7600136402159603e-01  2.7559910486055711e-01  2.7519609317727506e-01  2.7479334899573582e-01  2.7439060065080900e-01  2.7398931887563527e-01  2.7358720787832241e-01  2.7318630988365972e-01  2.7278454506956701e-01  2.7238321651490682e-01  2.7198190142930406e-01  2.7158235943248421e-01  2.7118255808094122e-01  2.7078398817194665e-01  2.7038542183871772e-01  2.6998660585463974e-01  2.6958891303578769e-01  2.6919112335031120e-01  2.6879479982005894e-01  2.6839800458180774e-01  2.6800064896688752e-01  2.6760486755215857e-01  2.6720886395067978e-01  2.6681442022239032e-01  2.6641984133326935e-01  2.6602563185725819e-01  2.6563205076474744e-01  2.6524013333262270e-01  2.6484796497993573e-01  2.6445531951207385e-01  2.6406404761769459e-01  2.6367249536106185e-01  2.6328113843387696e-01  2.6288971918508797e-01  2.6249971590294624e-01  2.6210910396456766e-01  2.6171968045361260e-01  2.6132975169937123e-01  2.6093955587774492e-01  2.6055055857690934e-01  2.6016081575083344e-01  2.5977150100247554e-01  2.5938208689961034e-01  2.5899278287960309e-01  2.5860478727210640e-01  2.5821632486465446e-01  2.5782946604948070e-01  2.5744223885948209e-01  2.5705581933030203e-01  2.5666973291966977e-01  2.5628541057412002e-01  2.5590065145002250e-01  2.5551741955399576e-01  2.5513372323353523e-01  2.5475080965323543e-01  2.5436829081637796e-01  2.5398756031721648e-01  2.5360668074088022e-01  2.5322700864254233e-01  2.5284735699177080e-01  2.5246766889067529e-01  2.5208930493390441e-01  2.5171068421480169e-01  2.5133217341036113e-01  2.5095393051990633e-01  2.5057714689030558e-01  2.5020017396434491e-01  2.4982288196952696e-01  2.4944669220589250e-01  2.4907017622544950e-01  2.4869344252823569e-01  2.4831753956356584e-01  2.4794126449728143e-01  2.4756625719228131e-01  2.4719065569640755e-01  2.4681539739379621e-01  2.4643976327010386e-01  2.4606531510412699e-01  2.4569044099410139e-01  2.4531581187550222e-01  2.4494264006199298e-01  2.4456898143228453e-01  2.4419606863774565e-01  2.4382348351398878e-01  2.4345116686822421e-01  2.4308023976054530e-01  2.4270899919082814e-01  2.4233924931960246e-01  2.4196910558856921e-01  2.4159969374227289e-01  2.4123010266278933e-01  2.4086110208401204e-01  2.4049206098847417e-01  2.4012442834824593e-01  2.3975639886145531e-01  2.3938866221463101e-01  2.3902059071223811e-01  2.3865248518288576e-01  2.3828541026861513e-01  2.3791768247177597e-01  2.3755007996492342e-01  2.3718234411247552e-01  2.3681574798394067e-01  2.3644861031762685e-01  2.3608203931955404e-01  2.3571464524917618e-01  2.3534824462522722e-01  2.3498097027029602e-01  2.3461383343424888e-01  2.3424642577035776e-01  2.3387999225311915e-01  2.3351263945503520e-01  2.3314477365147973e-01  2.3277796707615905e-01  2.3241035564139287e-01  2.3204203376453567e-01  2.3167474081711056e-01  2.3130689643136859e-01  2.3093951410379665e-01  2.3057148330902213e-01  2.3020312312742197e-01  2.2983528216758042e-01  2.2946609927807543e-01  2.2909626534242616e-01  2.2872565486094634e-01  2.2835607160055885e-01  2.2798553381769840e-01  2.2761593738656677e-01  2.2724557351357319e-01  2.2687523309053292e-01  2.2650441340161812e-01  2.2613412996751289e-01  2.2576280495314763e-01  2.2539086614006906e-01  2.2501941093524871e-01  2.2464658372578922e-01  2.2427286560025783e-01  2.2389811378135710e-01  2.2352366614649979e-01  2.2314787831256919e-01  2.2277197808436902e-01  2.2239462474044086e-01  2.2201660664971076e-01  2.2163757113911