<?xml version="1.0"?>
<VTKFile type="UnstructuredGrid"  version="0.1"  >
<UnstructuredGrid>
<Piece  NumberOfPoints="5023" NumberOfCells="7844">
<Points>
<DataArray  type="Float64"  NumberOfComponents="3"  format="ascii">0 0.01 0  0 0 0  0.01 0 0  0.02 0 0  0.03 0 0  0.04 0 0  0.05 0 0  0.06 0 0  0.07000000000000001 0 0  0.08 0 0  0.09 0 0  0.1 0 0  0.11 0 0  0.12 0 0  0.13 0 0  0.14 0 0  0.15 0 0  0.16 0 0  0.17 0 0  0.18 0 0  0.19 0 0  0.2 0 0  0.21 0 0  0.22 0 0  0.23 0 0  0.24 0 0  0.25 0 0  0.26 0 0  0.27 0 0  0.28 0 0  0.29 0 0  0.3 0 0  0.31 0 0  0.32 0 0  0.33 0 0  0.34 0 0  0.35 0 0  0.36 0 0  0.37 0 0  0.38 0 0  0.39 0 0  0.4 0 0  0.41 0 0  0.42 0 0  0.43 0 0  0.44 0 0  0.45 0 0  0.46 0 0  0.47 0 0  0.48 0 0  0.49 0 0  0.5 0 0  0.51 0 0  0.52 0 0  0.53 0 0  0.54 0 0  0.55 0 0  0.5600000000000001 0 0  0.57 0 0  0.58 0 0  0.59 0 0  0.6 0 0  0.61 0 0  0.62 0 0  0.63 0 0  0.64 0 0  0.65 0 0  0.66 0 0  0.67 0 0  0.68 0 0  0.6899999999999999 0 0  0.7 0 0  0.71 0 0  0.72 0 0  0.73 0 0  0.74 0 0  0.75 0 0  0.76 0 0  0.77 0 0  0.78 0 0  0.79 0 0  0.8 0 0  0.8100000000000001 0 0  0.82 0 0  0.83 0 0  0.84 0 0  0.85 0 0  0.86 0 0  0.87 0 0  0.88 0 0  0.89 0 0  0.9 0 0  0.91 0 0  0.92 0 0  0.93 0 0  0.9399999999999999 0 0  0.95 0 0  0.96 0 0  0.97 0 0  0.98 0 0  0.99 0 0  1 0 0  1.01 0 0  1.02 0 0  1.03 0 0  1.04 0 0  1.05 0 0  1.06 0 0  1.07 0 0  1.08 0 0  1.09 0 0  1.1 0 0  1.11 0 0  1.12 0 0  1.13 0 0  1.14 0 0  1.15 0 0  1.16 0 0  1.17 0 0  1.18 0 0  1.19 0 0  1.2 0 0  1.21 0 0  1.22 0 0  1.23 0 0  1.24 0 0  1.25 0 0  1.26 0 0  1.27 0 0  1.28 0 0  1.29 0 0  1.3 0 0  1.31 0 0  1.32 0 0  1.33 0 0  1.34 0 0  1.35 0 0  1.36 0 0  1.37 0 0  1.38 0 0  1.39 0 0  1.4 0 0  1.41 0 0  1.42 0 0  1.43 0 0  1.44 0 0  1.45 0 0  1.46 0 0  1.47 0 0  1.48 0 0  1.49 0 0  1.5 0 0  1.51 0 0  1.52 0 0  1.53 0 0  1.54 0 0  1.55 0 0  1.56 0 0  1.57 0 0  1.58 0 0  1.59 0 0  1.6 0 0  1.61 0 0  1.62 0 0  1.63 0 0  1.64 0 0  1.65 0 0  1.66 0 0  1.67 0 0  1.68 0 0  1.69 0 0  1.7 0 0  1.71 0 0  1.72 0 0  1.73 0 0  1.74 0 0  1.75 0 0  1.76 0 0  1.77 0 0  1.78 0 0  1.79 0 0  1.8 0 0  1.81 0 0  1.82 0 0  1.83 0 0  1.84 0 0  1.85 0 0  1.86 0 0  1.87 0 0  1.88 0 0  1.89 0 0  1.9 0 0  1.91 0 0  1.92 0 0  1.93 0 0  1.94 0 0  1.95 0 0  1.96 0 0  1.97 0 0  1.98 0 0  1.99 0 0  2 0 0  2.01 0 0  2.02 0 0  2.03 0 0  2.04 0 0  2.05 0 0  2.06 0 0  2.07 0 0  2.08 0 0  2.09 0 0  2.1 0 0  2.11 0 0  2.12 0 0  2.13 0 0  2.14 0 0  2.15 0 0  2.16 0 0  2.17 0 0  2.18 0 0  2.19 0 0  2.2 0 0  2.21 0 0  2.22 0 0  2.23 0 0  2.24 0 0  2.25 0 0  2.26 0 0  2.27 0 0  2.28 0 0  2.29 0 0  2.3 0 0  2.31 0 0  2.32 0 0  2.33 0 0  2.34 0 0  2.35 0 0  2.36 0 0  2.37 0 0  2.38 0 0  2.39 0 0  2.4 0 0  2.41 0 0  2.42 0 0  2.43 0 0  2.44 0 0  2.45 0 0  2.46 0 0  2.47 0 0  2.48 0 0  2.49 0 0  2.5 0 0  2.51 0 0  2.52 0 0  2.53 0 0  2.54 0 0  2.55 0 0  2.56 0 0  2.57 0 0  2.58 0 0  2.59 0 0  2.6 0 0  2.61 0 0  2.62 0 0  2.63 0 0  2.64 0 0  2.65 0 0  2.66 0 0  2.67 0 0  2.68 0 0  2.69 0 0  2.7 0 0  2.71 0 0  2.72 0 0  2.73 0 0  2.74 0 0  2.75 0 0  2.76 0 0  2.77 0 0  2.78 0 0  2.79 0 0  2.8 0 0  2.81 0 0  2.82 0 0  2.83 0 0  2.84 0 0  2.85 0 0  2.86 0 0  2.87 0 0  2.88 0 0  2.89 0 0  2.9 0 0  2.91 0 0  2.92 0 0  2.93 0 0  2.94 0 0  2.95 0 0  2.96 0 0  2.97 0 0  2.98 0 0  2.99 0 0  3 0 0  3.01 0 0  3.02 0 0  3.03 0 0  3.04 0 0  3.05 0 0  3.06 0 0  3.07 0 0  3.08 0 0  3.09 0 0  3.1 0 0  3.11 0 0  3.12 0 0  3.13 0 0  3.14 0 0  3.15 0 0  3.16 0 0  3.17 0 0  3.18 0 0  3.19 0 0  3.2 0 0  3.21 0 0  3.22 0 0  3.23 0 0  3.24 0 0  3.25 0 0  3.26 0 0  3.27 0 0  3.28 0 0  3.29 0 0  3.3 0 0  3.31 0 0  3.32 0 0  3.33 0 0  3.34 0 0  3.35 0 0  3.36 0 0  3.37 0 0  3.38 0 0  3.39 0 0  3.4 0 0  3.41 0 0  3.42 0 0  3.43 0 0  3.44 0 0  3.45 0 0  3.46 0 0  3.47 0 0  3.48 0 0  3.49 0 0  3.5 0 0  3.51 0 0  3.52 0 0  3.53 0 0  3.54 0 0  3.55 0 0  3.56 0 0  3.57 0 0  3.58 0 0  3.59 0 0  3.6 0 0  3.61 0 0  3.62 0 0  3.63 0 0  3.64 0 0  3.65 0 0  3.66 0 0  3.67 0 0  3.68 0 0  3.69 0 0  3.7 0 0  3.71 0 0  3.72 0 0  3.73 0 0  3.74 0 0  3.75 0 0  3.76 0 0  3.77 0 0  3.78 0 0  3.79 0 0  3.8 0 0  3.81 0 0  3.82 0 0  3.83 0 0  3.84 0 0  3.85 0 0  3.86 0 0  3.87 0 0  3.88 0 0  3.89 0 0  3.9 0 0  3.91 0 0  3.92 0 0  3.93 0 0  3.94 0 0  3.95 0 0  3.96 0 0  3.97 0 0  3.98 0 0  3.99 0 0  4 0 0  4.01 0 0  4.02 0 0  4.03 0 0  4.04 0 0  4.05 0 0  4.06 0 0  4.07 0 0  4.08 0 0  4.09 0 0  4.1 0 0  4.11 0 0  4.12 0 0  4.13 0 0  4.14 0 0  4.15 0 0  4.16 0 0  4.17 0 0  4.18 0 0  4.19 0 0  4.2 0 0  4.21 0 0  4.22 0 0  4.23 0 0  4.24 0 0  4.25 0 0  4.26 0 0  4.27 0 0  4.28 0 0  4.29 0 0  4.3 0 0  4.31 0 0  4.32 0 0  4.33 0 0  4.34 0 0  4.35 0 0  4.36 0 0  4.37 0 0  4.38 0 0  4.39 0 0  4.4 0 0  4.41 0 0  4.42 0 0  4.43 0 0  4.44 0 0  4.45 0 0  4.46 0 0  4.47 0 0  4.48 0 0  4.49 0 0  4.5 0 0  4.51 -0.06282151815625525 0  4.52 -0.1255810390586241 0  4.53 -0.1882166266370302 0  4.54 -0.2506664671286087 0  4.55 -0.3128689300804606 0  4.56 -0.3747626291714468 0  4.57 -0.4362864827930868 0  4.58 -0.49737977432971 0  4.59 -0.5579822120784577 0  4.6 -0.6180339887498927 0  4.61 -0.6774758404905846 0  4.62 -0.7362491053693565 0  4.63 -0.7942957812695606 0  4.64 -0.8515585831301434 0  4.65 -0.9079809994790955 0  4.66 -0.9635073482034314 0  4.67 -1.018082831500742 0  4.68 -1.071653589957992 0  4.69 -1.124166755704263 0  4.7 -1.175570504584947 0  4.71 -1.225814107305953 0  4.72 -1.274847979497378 0  4.73 -1.322623730647306 0  4.74 -1.369094211857378 0  4.75 -1.414213562373095 0  4.76 -1.457937254842822 0  4.77 -1.500222139260917 0  4.78 -1.541026485551579 0  4.79 -1.580310024751381 0  4.8 -1.618033988749894 0  4.81 -1.654161148549122 0  4.82 -1.688655851004031 0  4.83 -1.721484054007887 0  4.84 -1.752613360087727 0  4.85 -1.782013048376735 0  4.86 -1.80965410493204 0  4.87 -1.835509251367963 0  4.88 -1.859552971776502 0  4.89 -1.88176153790845 0  4.9 -1.902113032590308 0  4.91 -1.920587371353886 0  4.92 -1.937166322257262 0  4.93 -1.951833523877494 0  4.94 -1.964574501457378 0  4.95 -1.975376681190276 0  4.96 -1.984229402628956 0  4.97 -1.99112392920616 0  4.98 -1.996053456856543 0  4.99 -1.999013120731463 0  5 -2 0  5.01 -1.999013120731463 0  5.02 -1.996053456856543 0  5.03 -1.99112392920616 0  5.04 -1.984229402628956 0  5.05 -1.975376681190276 0  5.06 -1.964574501457378 0  5.07 -1.951833523877494 0  5.08 -1.937166322257262 0  5.09 -1.920587371353886 0  5.1 -1.902113032590308 0  5.11 -1.88176153790845 0  5.12 -1.859552971776503 0  5.13 -1.835509251367963 0  5.14 -1.80965410493204 0  5.15 -1.782013048376735 0  5.16 -1.752613360087727 0  5.17 -1.721484054007888 0  5.18 -1.688655851004031 0  5.19 -1.654161148549123 0  5.2 -1.618033988749894 0  5.21 -1.580310024751381 0  5.22 -1.54102648555158 0  5.23 -1.500222139260918 0  5.24 -1.457937254842822 0  5.25 -1.414213562373095 0  5.26 -1.369094211857378 0  5.27 -1.322623730647306 0  5.28 -1.274847979497378 0  5.29 -1.225814107305953 0  5.3 -1.175570504584947 0  5.31 -1.124166755704263 0  5.32 -1.071653589957992 0  5.33 -1.018082831500742 0  5.34 -0.9635073482034312 0  5.35 -0.9079809994790962 0  5.36 -0.8515585831301434 0  5.37 -0.7942957812695605 0  5.38 -0.7362491053693571 0  5.39 -0.6774758404905852 0  5.4 -0.6180339887498926 0  5.41 -0.5579822120784582 0  5.42 -0.4973797743297105 0  5.43 -0.4362864827930872 0  5.44 -0.3747626291714474 0  5.45 -0.3128689300804611 0  5.46 -0.2506664671286091 0  5.47 -0.1882166266370305 0  5.48 -0.1255810390586245 0  5.49 -0.06282151815625558 0  5.5 -2.449293598294706e-16 0  5.51 0 0  5.52 0 0  5.53 0 0  5.54 0 0  5.55 0 0  5.56 0 0  5.57 0 0  5.58 0 0  5.59 0 0  5.6 0 0  5.61 0 0  5.62 0 0  5.63 0 0  5.64 0 0  5.65 0 0  5.66 0 0  5.67 0 0  5.68 0 0  5.69 0 0  5.7 0 0  5.71 0 0  5.72 0 0  5.73 0 0  5.74 0 0  5.75 0 0  5.76 0 0  5.77 0 0  5.78 0 0  5.79 0 0  5.8 0 0  5.81 0 0  5.82 0 0  5.83 0 0  5.84 0 0  5.85 0 0  5.86 0 0  5.87 0 0  5.88 0 0  5.89 0 0  5.9 0 0  5.91 0 0  5.92 0 0  5.93 0 0  5.94 0 0  5.95 0 0  5.96 0 0  5.97 0 0  5.98 0 0  5.99 0 0  6 0 0  6.01 0 0  6.02 0 0  6.03 0 0  6.04 0 0  6.05 0 0  6.06 0 0  6.07 0 0  6.08 0 0  6.09 0 0  6.1 0 0  6.11 0 0  6.12 0 0  6.13 0 0  6.14 0 0  6.15 0 0  6.16 0 0  6.17 0 0  6.18 0 0  6.19 0 0  6.2 0 0  6.21 0 0  6.22 0 0  6.23 0 0  6.24 0 0  6.25 0 0  6.26 0 0  6.27 0 0  6.28 0 0  6.29 0 0  6.3 0 0  6.31 0 0  6.32 0 0  6.33 0 0  6.34 0 0  6.35 0 0  6.36 0 0  6.37 0 0  6.38 0 0  6.39 0 0  6.4 0 0  6.41 0 0  6.42 0 0  6.43 0 0  6.44 0 0  6.45 0 0  6.46 0 0  6.47 0 0  6.48 0 0  6.49 0 0  6.5 0 0  6.51 0 0  6.52 0 0  6.53 0 0  6.54 0 0  6.55 0 0  6.56 0 0  6.57 0 0  6.58 0 0  6.59 0 0  6.6 0 0  6.61 0 0  6.62 0 0  6.63 0 0  6.64 0 0  6.65 0 0  6.66 0 0  6.67 0 0  6.68 0 0  6.69 0 0  6.7 0 0  6.71 0 0  6.72 0 0  6.73 0 0  6.74 0 0  6.75 0 0  6.76 0 0  6.77 0 0  6.78 0 0  6.79 0 0  6.8 0 0  6.81 0 0  6.82 0 0  6.83 0 0  6.84 0 0  6.85 0 0  6.86 0 0  6.87 0 0  6.88 0 0  6.89 0 0  6.9 0 0  6.91 0 0  6.92 0 0  6.93 0 0  6.94 0 0  6.95 0 0  6.96 0 0  6.97 0 0  6.98 0 0  6.99 0 0  7 0 0  7.01 0 0  7.02 0 0  7.03 0 0  7.04 0 0  7.05 0 0  7.06 0 0  7.07 0 0  7.08 0 0  7.09 0 0  7.1 0 0  7.11 0 0  7.12 0 0  7.13 0 0  7.14 0 0  7.15 0 0  7.16 0 0  7.17 0 0  7.18 0 0  7.19 0 0  7.2 0 0  7.21 0 0  7.22 0 0  7.23 0 0  7.24 0 0  7.25 0 0  7.26 0 0  7.27 0 0  7.28 0 0  7.29 0 0  7.3 0 0  7.31 0 0  7.32 0 0  7.33 0 0  7.34 0 0  7.35 0 0  7.36 0 0  7.37 0 0  7.38 0 0  7.39 0 0  7.4 0 0  7.41 0 0  7.42 0 0  7.43 0 0  7.44 0 0  7.45 0 0  7.46 0 0  7.47 0 0  7.48 0 0  7.49 0 0  7.5 0 0  7.51 0 0  7.52 0 0  7.53 0 0  7.54 0 0  7.55 0 0  7.56 0 0  7.57 0 0  7.58 0 0  7.59 0 0  7.6 0 0  7.61 0 0  7.62 0 0  7.63 0 0  7.64 0 0  7.65 0 0  7.66 0 0  7.67 0 0  7.68 0 0  7.69 0 0  7.7 0 0  7.71 0 0  7.72 0 0  7.73 0 0  7.74 0 0  7.75 0 0  7.76 0 0  7.77 0 0  7.78 0 0  7.79 0 0  7.8 0 0  7.81 0 0  7.82 0 0  7.83 0 0  7.84 0 0  7.85 0 0  7.86 0 0  7.87 0 0  7.88 0 0  7.89 0 0  7.9 0 0  7.91 0 0  7.92 0 0  7.93 0 0  7.94 0 0  7.95 0 0  7.96 0 0  7.97 0 0  7.98 0 0  7.99 0 0  8 0 0  8.01 0 0  8.02 0 0  8.029999999999999 0 0  8.039999999999999 0 0  8.0500000
[...]
<PointData  Scalars="f_1228"> 
<DataArray  type="Float64"  Name="f_1228"  format="ascii">1.0000000000000000e+00  1.0000000000000000e+00  9.5281964733486790e-01  9.1869743985411967e-01  8.9005526736390250e-01  8.6542558672705849e-01  8.4435050124691668e-01  8.2531136979959241e-01  8.0790336171073851e-01  7.9211102406579825e-01  7.7760831602602754e-01  7.6409925066307571e-01  7.5142120484917252e-01  7.3954249113878745e-01  7.2830101423389904e-01  7.1780176880606794e-01  7.0782912332105030e-01  6.9829252309202683e-01  6.8912615470645511e-01  6.8045189652168669e-01  6.7209942154637237e-01  6.6410884597027808e-01  6.5643518496922471e-01  6.4916736386917051e-01  6.4218068621380864e-01  6.3535728410318371e-01  6.2885819313138780e-01  6.2256248621516697e-01  6.1647985374715153e-01  6.1057662495680476e-01  6.0491670998139313e-01  5.9939302527203719e-01  5.9403540036336322e-01  5.8882110398332443e-01  5.8381011375348890e-01  5.7890498579144378e-01  5.7406750034636633e-01  5.6940931636923720e-01  5.6485719642265264e-01  5.6045659437606199e-01  5.5614341958669145e-01  5.5198185588632587e-01  5.4788576740964490e-01  5.4387238430384954e-01  5.3991724517642403e-01  5.3607853202883671e-01  5.3228231048005414e-01  5.2858588878564083e-01  5.2494636109810244e-01  5.2138958481616993e-01  5.1790892210003647e-01  5.1454540552153660e-01  5.1123819808772653e-01  5.0796291430045970e-01  5.0477093975602449e-01  5.0162248537598653e-01  4.9855760212275119e-01  4.9552148093961812e-01  4.9253937499318290e-01  4.8959014037405402e-01  4.8672491656141181e-01  4.8388610005319643e-01  4.8110153303736192e-01  4.7835126693421703e-01  4.7566889228987680e-01  4.7300828532707495e-01  4.7037666225548019e-01  4.6780901585144419e-01  4.6525384633985517e-01  4.6272720718889121e-01  4.6022935244345070e-01  4.5778980297609179e-01  4.5536537734048205e-01  4.5299179704249759e-01  4.5062907244774209e-01  4.4830023437451344e-01  4.4599685354000962e-01  4.4373797510647334e-01  4.4149241320038762e-01  4.3930038948186845e-01  4.3711879593069730e-01  4.3496760280913560e-01  4.3282858926157253e-01  4.3070539152821585e-01  4.2862230723679517e-01  4.2654051779959901e-01  4.2449120975180643e-01  4.2246200193456779e-01  4.2047255470953143e-01  4.1849484989735070e-01  4.1656213573065498e-01  4.1463594835138540e-01  4.1273452962531709e-01  4.1084137012112593e-01  4.0896048937974433e-01  4.0711252054224417e-01  4.0526264479369578e-01  4.0343069671748261e-01  4.0161086976952448e-01  3.9982734834513900e-01  3.9804720664685528e-01  3.9627111909398022e-01  3.9452164187165811e-01  3.9277470679614196e-01  3.9105582356092455e-01  3.8933549019658770e-01  3.8762424696406544e-01  3.8592301741096102e-01  3.8425252088849454e-01  3.8258153220831204e-01  3.8091433350585574e-01  3.7927527373974740e-01  3.7764108265398100e-01  3.7603514552199580e-01  3.7442987428619606e-01  3.7283188251177457e-01  3.7126301439878068e-01  3.6969300971176056e-01  3.6812618368369876e-01  3.6656988296739551e-01  3.6503758726535396e-01  3.6351024058743864e-01  3.6200874462861699e-01  3.6050184018170911e-01  3.5901787874565821e-01  3.5752678153777478e-01  3.5604744172222669e-01  3.5456896354432516e-01  3.5309811242752731e-01  3.5165057812578621e-01  3.5020221687053132e-01  3.4878161020291210e-01  3.4735971076130867e-01  3.4595443009586374e-01  3.4455323912404162e-01  3.4315622046719035e-01  3.4177636912366249e-01  3.4039911257227240e-01  3.3904305086945352e-01  3.3768224723242118e-01  3.3633719701968484e-01  3.3499176647630802e-01  3.3365434868775790e-01  3.3232315812751950e-01  3.3101253369931222e-01  3.2970041568587843e-01  3.2838977721663676e-01  3.2709326684265161e-01  3.2579712344159290e-01  3.2452186297894375e-01  3.2324217279033585e-01  3.2197241522052000e-01  3.2070343898768194e-01  3.1945309091635682e-01  3.1819988204262900e-01  3.1695637634435053e-01  3.1571018496021674e-01  3.1446925534546449e-01  3.1324531526032323e-01  3.1201685848316274e-01  3.1079477625507845e-01  3.0958100655856619e-01  3.0838502609719048e-01  3.0718678281842171e-01  3.0599197437368386e-01  3.0481270595394733e-01  3.0362958531976375e-01  3.0246455899414199e-01  3.0129381696370588e-01  3.0013195259795911e-01  2.9897400490865156e-01  2.9783538025603840e-01  2.9669194377132962e-01  2.9554940910423005e-01  2.9442473795314084e-01  2.9329750740584210e-01  2.9217696965572859e-01  2.9106001612023713e-01  2.8996016234096300e-01  2.8885697750946704e-01  2.8775367806305008e-01  2.8666294983630775e-01  2.8557328748267174e-01  2.8449892438271362e-01  2.8341831281625612e-01  2.8233678486815494e-01  2.8126950038297188e-01  2.8019779465792155e-01  2.7913826044678963e-01  2.7807328783648305e-01  2.7701484595265047e-01  2.7596208962709762e-01  2.7492589001010054e-01  2.7388468942814481e-01  2.7284230434739387e-01  2.7181352657441299e-01  2.7078069211444311e-01  2.6975738480424166e-01  2.6873152113065496e-01  2.6770969025234720e-01  2.6670284134203581e-01  2.6569231308907432e-01  2.6468793471534136e-01  2.6368757798925363e-01  2.6270056267185005e-01  2.6170686458645609e-01  2.6071153593370994e-01  2.5972995711143587e-01  2.5874519999112006e-01  2.5777203005465338e-01  2.5679626248213333e-01  2.5582509561392225e-01  2.5485967358068595e-01  2.5390544349080568e-01  2.5294941885278233e-01  2.5200619077961101e-01  2.5105780260810273e-01  2.5011772409303501e-01  2.4917457271833868e-01  2.4823355884543927e-01  2.4729505094172136e-01  2.4636818140420322e-01  2.4544028444199034e-01  2.4452667064726663e-01  2.4360793650715917e-01  2.4268715802604524e-01  2.4177734346938337e-01  2.4086296178302158e-01  2.3995063832109420e-01  2.3904200593811578e-01  2.3814733340217170e-01  2.3724893724876658e-01  2.3635067773620830e-01  2.3546680511897330e-01  2.3458277651519513e-01  2.3369996249668179e-01  2.3282668554314326e-01  2.3195377635552125e-01  2.3109288616815224e-01  2.3022752666310087e-01  2.2936687221647031e-01  2.2850814813364284e-01  2.2766194820202115e-01  2.2681158775694923e-01  2.2596065604849833e-01  2.2512049390481223e-01  2.2427675170999428e-01  2.2343662049038618e-01  2.2259622594809786e-01  2.2176809078649237e-01  2.2093622426073509e-01  2.2011545233372246e-01  2.1929054660531244e-01  2.1847040897527475e-01  2.1765334178133638e-01  2.1684642151905451e-01  2.1603327362939115e-01  2.1521822596261181e-01  2.1441404957556562e-01  2.1360687504951578e-01  2.1280910049783239e-01  2.1200906949440690e-01  2.1121293489770016e-01  2.1042172097904213e-01  2.0964098877564524e-01  2.0885770690383171e-01  2.0807624604712119e-01  2.0730455238465326e-01  2.0652869987544389e-01  2.0575505860553264e-01  2.0498460740426436e-01  2.0422539653531091e-01  2.0346372585326852e-01  2.0270197010966332e-01  2.0194957750841944e-01  2.0119486986148138e-01  2.0044206899099518e-01  1.9969862363067514e-01  1.9895242362790916e-01  1.9820853202396937e-01  1.9747632542770216e-01  1.9674157472066528e-01  1.9600849768446890e-01  1.9527859680797885e-01  1.9455817476202300e-01  1.9383496309972661e-01  1.9311608648861514e-01  1.9240652471170411e-01  1.9169129373343646e-01  1.9098152733059073e-01  1.9026935333890033e-01  1.8956073428898113e-01  1.8885644253342648e-01  1.8816226683141002e-01  1.8746451911341153e-01  1.8676626717399145e-01  1.8607690510357947e-01  1.8538465889810954e-01  1.8469545358124637e-01  1.8400607659093465e-01  1.8332658200220975e-01  1.8264384921764792e-01  1.8196997287689776e-01  1.8129244995933097e-01  1.8061861903630791e-01  1.7994710281154661e-01  1.7928373084285021e-01  1.7861504149071900e-01  1.7794465606075399e-01  1.7728303493934938e-01  1.7661876724709930e-01  1.7596209232163978e-01  1.7530341557840412e-01  1.7464787486993064e-01  1.7399633560021566e-01  1.7335339684513004e-01  1.7270832714912285e-01  1.7206474529923338e-01  1.7142919589189395e-01  1.7079020974697759e-01  1.7015303462879580e-01  1.6951847614986007e-01  1.6889316053812514e-01  1.6826580381200609e-01  1.6763814464674900e-01  1.6701741263991868e-01  1.6639557274085409e-01  1.6578161341546085e-01  1.6516501671752407e-01  1.6455044062616400e-01  1.6393823758372042e-01  1.6333529982245987e-01  1.6272985555422498e-01  1.6212396883423869e-01  1.6152583608469695e-01  1.6092862218097942e-01  1.6034058498712392e-01  1.5974932600699837e-01  1.5915761054539090e-01  1.5857379599287250e-01  1.5798748482666430e-01  1.5740378972589258e-01  1.5682210063519683e-01  1.5624910250285062e-01  1.5567296760475266e-01  1.5509584147778471e-01  1.5452573791232108e-01  1.5395543295791314e-01  1.5339322089144405e-01  1.5282743042341748e-01  1.5226152518686786e-01  1.5170396636075725e-01  1.5114419634790555e-01  1.5058479982198866e-01  1.5003303224129425e-01  1.4947990267696418e-01  1.4892713671948388e-01  1.4838042180475444e-01  1.4783130461429114e-01  1.4728389480139198e-01  1.4674342844607502e-01  1.4620020705758499e-01  1.4565940522047160e-01  1.4512156996945197e-01  1.4459033688253614e-01  1.4405873321875420e-01  1.4353559095905849e-01  1.4301058750716705e-01  1.4248907199560129e-01  1.4196638308584303e-01  1.4144526824946205e-01  1.4093007236508748e-01  1.4041116463048786e-01  1.3989676111282623e-01  1.3938370998811930e-01  1.3887839613774022e-01  1.3837215531567942e-01  1.3786753730058957e-01  1.3737051592430902e-01  1.3687253761057599e-01  1.3638293646792279e-01  1.3589169230861711e-01  1.3540407606659446e-01  1.3491771447200168e-01  1.3443842974054176e-01  1.3395638802435034e-01  1.3347376189239940e-01  1.3299814862473827e-01  1.3252090362878277e-01  1.3205007335897331e-01  1.3157751287970323e-01  1.3110757767721742e-01  1.3064071256157497e-01  1.3018058242732569e-01  1.2971809090275049e-01  1.2926103023661747e-01  1.2880065860092657e-01  1.2834297859873411e-01  1.2788619129538456e-01  1.2743696754135383e-01  1.2698664170844712e-01  1.2653736605236596e-01  1.2609488633303986e-01  1.2565114723430704e-01  1.2520801826150729e-01  1.2477074285409281e-01  1.2433194906259698e-01  1.2389473377121686e-01  1.2345834641601482e-01  1.2302766583874120e-01  1.2259728863615556e-01  1.2217393732001014e-01  1.2174873314288634e-01  1.2132429668482295e-01  1.2090682946880599e-01  1.2048770547164406e-01  1.2006846580018232e-01  1.1965540930488391e-01  1.1924141568382192e-01  1.1883111546763832e-01  1.1842062950872598e-01  1.1801588668124974e-01  1.1760832942896340e-01  1.1720502097757478e-01  1.1679916044707118e-01  1.1639724652379910e-01  1.1599160334525246e-01  1.1558721683699510e-01  1.1518212353845132e-01  1.1478149994512192e-01  1.1437789859434193e-01  1.1397279712123003e-01  1.1356896237749023e-01  1.1316204231651304e-01  1.1275625655847835e-01  1.1234360519894440e-01  1.1192804715932193e-01  1.1150597406447073e-01  1.1108038224864147e-01  1.1064540081339459e-01  1.1020317338906641e-01  1.0974465338001398e-01  1.0927238309993145e-01  1.0877865084721655e-01  1.0826051093274962e-01  1.0770882278386386e-01  1.0710737010719347e-01  1.0643776558871183e-01  1.0561927235478588e-01  1.0463650774771922e-01  1.0340575031366953e-01  1.0148379841859376e-01  8.3879333538628253e-02  7.1673060064645522e-02  6.2074011959713939e-02  5.4399528861481340e-02  4.7799911415981708e-02  4.2182262214003903e-02  3.7553641661162318e-02  3.3342870142468971e-02  2.9620491020171308e-02  2.6517668304276733e-02  2.3595517394329898e-02  2.1098550745698316e-02  1.8795859515209332e-02  1.6779960139327643e-02  1.4998295998610805e-02  1.3490979650390682e-02  1.2076439492274937e-02  1.0846743634395011e-02  9.7091243084123161e-03  8.7067549901502315e-03  7.8157805327677497e-03  7.0613302955654560e-03  6.3560868057005735e-03  5.7427941948904552e-03  5.1846804395271539e-03  4.7098679928510344e-03  4.2733236248781083e-03  3.8813546766151264e-03  3.5367595390438178e-03  3.2446704403762531e-03  2.9787323921959849e-03  2.7368291379571046e-03  2.5288412955546658e-03  2.3445443034927019e-03  2.1891925228256079e-03  2.0485599647355446e-03  1.9280536870305111e-03  1.8219779032781745e-03  1.7341198658743216e-03  1.6566277083920808e-03  1.5933439253540201e-03  1.5383026759882613e-03  1.4924261646309738e-03  1.4567272004034940e-03  1.4298083381805802e-03  1.4080342656087974e-03  1.3925692564044428e-03  1.3824702100862303e-03  1.3769530873033659e-03  1.3749416217742766e-03  1.3769511460264121e-03  1.3829478047367515e-03  1.3926011861413819e-03  1.4077061263936114e-03  1.4286194903094869e-03  1.4565826128738535e-03  1.4927116817213312e-03  1.5384885249806282e-03  1.5934427750861743e-03  1.6566678622723192e-03  1.7341323324142385e-03  1.8219706608858753e-03  1.9280338326940144e-03  2.0485375602204690e-03  2.1891838456520119e-03  2.3446474173978425e-03  2.5291785096192435e-03  2.7377512900822109e-03  2.9754985147424466e-03  3.2353180307035136e-03  3.5420500782537986e-03  3.8758215002579737e-03  4.2653067421990669e-03  4.6978253211707802e-03  5.1701854585674443e-03  5.7256811330038317e-03  6.3329915999744716e-03  7.0303098433031671e-03  7.7750428094914706e-03  8.6535997498473384e-03  9.6239359276483177e-03  1.0734997938786198e-02  1.1930673338819257e-02  1.3305346277251591e-02  1.4730977524742119e-02  1.6399270706306077e-02  1.8270436649967824e-02  2.0392918439952116e-02  2.2664621049407870e-02  2.5091341775882122e-02  2.7812242823251062e-02  3.0790526456965138e-02  3.4197230534337736e-02  3.7882770232698842e-02  4.1801894368488725e-02  4.6209322698119060e-02  5.1053376705858390e-02  5.6808590615799633e-02  6.3591038989406851e-02  7.2687636579496673e-02  7.2675719507459449e-02  7.2563431310552887e-02  7.2348536612800066e-02  7.2103313531327679e-02  7.1834395473311330e-02  7.1557728680247429e-02  7.1277951032065814e-02  7.0990031463082096e-02  7.0700386873912127e-02  7.0413228484590140e-02  7.0123024906684372e-02  6.9834738507683361e-02  6.9547458110264887e-02  6.9265019125160629e-02  6.8981762274558531e-02  6.8702548725560350e-02  6.8421969275930278e-02  6.8143576062066585e-02  6.7866176921369606e-02  6.7593415434138771e-02  6.7319794327005203e-02  6.7049275298138214e-02  6.6778564929862894e-02  6.6511511234311094e-02  6.6244084440774051e-02  6.5978147017916502e-02  6.5717107215090137e-02  6.5455788271054277e-02  6.5196065136677209e-02  6.4937751825637324e-02  6.4683608876023563e-02  6.4429157788118835e-02  6.4176675416239296e-02  6.3924715706495286e-02  6.3676568135161926e-02  6.3427484939344636e-02  6.3180112000772837e-02  6.2933656492239962e-02  6.2691187088505629e-02  6.2447928651493026e-02  6.2204751617491220e-02  6.1965045033438991e-02  6.1724716794738142e-02  6.1485775318915269e-02  6.1247123616347106e-02  6.1012254135837329e-02  6.0776828851340038e-02  6.0544669325198294e-02  6.0311666228916601e-02  6.0080171061229933e-02  5.9849734128958915e-02  5.9622586234051908e-02  5.9394122860384681e-02  5.9165212413091084e-02  5.8939457256112993e-02  5.8713140492726003e-02  5.8489987865479369e-02  5.8266150783923894e-02  5.8043504173385677e-02  5.7822286796265790e-02  5.7604178215267435e-02  5.7385523439991197e-02  5.7167460008999263e-02  5.6952276216577488e-02  5.6736082728642605e-02  5.6520660568643882e-02  5.6306208711426275e-02  5.6095011565365324e-02  5.5883252017920625e-02  5.5671549219296707e-02  5.5462591185934496e-02  5.5253131129303058e-02  5.5044288043273014e-02  5.4838219767033153e-02  5.4631582633583788e-02  5.4425591682207584e-02  5.4222931497927694e-02  5.4019688459310503e-02  5.3816991164266657e-02  5.3615170129039921e-02  5.3415930176167803e-02  5.3215873606192114e-02  5.3016972783887624e-02  5.2820546626252324e-02  5.2622433369009430e-02  5.2425735421032862e-02  5.2228164273454773e-02  5.2031685867876702e-02  5.1836177416623899e-02  5.1643423627514028e-02  5.1449576123994201e-02  5.1255495330787527e-02  5.1063850765039713e-02  5.0871370619408260e-02  5.0679698549250994e-02  5.0487988533646465e-02  5.0299164337406416e-02  5.0109738308179191e-02  4.9922837477055823e-02  4.9735153459280576e-02  4.9548600302609574e-02  4.9362823221076851e-02  4.9179622186906621e-02  4.8995283499273970e-02  4.8810526415084245e-02  4.8628230870834378e-02  4.8445395622965411e-02  4.8265043770858954e-02  4.8084064849520346e-02  4.7903890386079680e-02  4.7724827711463157e-02  4.7548169864816033e-02  4.7370962726581305e-02  4.7194172925353828e-02  4.7019584580173947e-02  4.6844032206057033e-02  4.6669035642143135e-02  4.6494655474073797e-02  4.6322847724612953e-02  4.6150497479182720e-02  4.5978054331024157e-02  4.5807442504624402e-02  4.5636579713227814e-02  4.5467827734019264e-02  4.5298203133023227e-02  4.5129228371293240e-02  4.4960771002718031e-02  4.4794863679369690e-02  4.4628202492558645e-02  4.4461538742925993e-02  4.4297384824584084e-02  4.4132967727579422e-02  4.3968611377292063e-02  4.3805825842577757e-02  4.3642888821961996e-02  4.3481984363864197e-02  4.3319985560062606e-02  4.3158760462458326e-02  4.2997821914176775e-02  4.2839193241289542e-02  4.2679487553061071e-02  4.2521845490702662e-02  4.2362987258663609e-02  4.2204941696866095e-02  4.2046996831055061e-02  4.1891483058110024e-02  4.1735227861604843e-02  4.1580838625833991e-02  4.1426115650938587e-02  4.1271340816990187e-02  4.1118168446758765e-02  4.0965067291627015e-02  4.0814029586567685e-02  4.0662093982338082e-02  4.0509922102740903e-02  4.0359677777658975e-02  4.0209024782952435e-02  4.0060303118690389e-02  3.9910950705454161e-02  3.9762202970981965e-02  3.9614440371549230e-02  3.9468823094072021e-02  3.9322498608807266e-02  3.9176068066552834e-02  3.9031445766818031e-02  3.8886181116321347e-02  3.8741332792484290e-02  3.8596518674141565e-02  3.8453622696936245e-02  3.8310029584908735e-02  3.8168193009636690e-02  3.8025640113422340e-02  3.7883456276771442e-02  3.7743149422435111e-02  3.7601907789427763e-02  3.7461516958944771e-02  3.7320868046804331e-02  3.7180677558901601e-02  3.7042091134136701e-02  3.6902820284271574e-02  3.6765479320756626e-02  3.6627260671477375e-02  3.6490019955195949e-02  3.6353077134035572e-02  3.6218296715409673e-02  3.6082796543899495e-02  3.5949207280046004e-02  3.5814744579773850e-02  3.5681154148733837e-02  3.5547879975115604e-02  3.5416713176275830e-02  3.5284976978677475e-02  3.5154815965280806e-02  3.5024353847868915e-02  3.4894043110227799e-02  3.4765313960643689e-02  3.4636010335350464e-02  3.4506902373199443e-02  3.4378209354746364e-02  3.4251328444782847e-02  3.4124034121526474e-02  3.3996670172194939e-02  3.3870763778617544e-02  3.3744398952312550e-02  3.3618180487418776e-02  3.3493032527939004e-02  3.3367629821547479e-02  3.3243907809874143e-02  3.3119403206031552e-02  3.2995590319800580e-02  3.2871570685766502e-02  3.2749085256254057e-02  3.2626020401523979e-02  3.2503645217435012e-02  3.2382986237841943e-02  3.2261522451061231e-02  3.2140976897874762e-02  3.2020509144549500e-02  3.1900580227645595e-02  3.1782230242014306e-02  3.1663504701939758e-02  3.1546565567412602e-02  3.1429022636771310e-02  3.1312561228018856e-02  3.1195804411542821e-02  3.1079968545526387e-02  3.0964222581371912e-02  3.0850206122100508e-02  3.0735674086602736e-02  3.0621856237718178e-02  3.0507744740561542e-02  3.0393971946637684e-02  3.0281513960841621e-02  3.0168303017857962e-02  3.0055634577494186e-02  2.9943208414926811e-02  2.9832351902121128e-02  2.9721026821971919e-02  2.9610822372473290e-02  2.9500022207058406e-02  2.9390691576601582e-02  2.9280596272736895e-02  2.9171096014106692e-02  2.9061708458542727e-02  2.8953869080936244e-02  2.8845343313658098e-02  2.8736825117446574e-02  2.8629820941418756e-02  2.8522150169265362e-02  2.8414333428134757e-02  2.8308031865370651e-02  2.8201412120566909e-02  2.8095937736398027e-02  2.7990059452198061e-02  2.7884650429401428e-02  2.7780520162691447e-02  2.7675556050617358e-02  2.7570658390499155e-02  2.7465691396452090e-02  2.7362223966341359e-02  2.7258259881233381e-02  2.7155698012525441e-02  2.7052637356517320e-02  2.6950307724692292e-02  2.6848232025974004e-02  2.6747393987523106e-02  2.6646071478740877e-02  2.6545043204585724e-02  2.6445305881751265e-02  2.6344861791651363e-02  2.6244443929978375e-02  2.6144014736164893e-02  2.6044833276269368e-02  2.5945153879094612e-02  2.5846516663005064e-02  2.5747269891375425e-02  2.5648504673596379e-02  2.5549906539728