<?xml version="1.0"?>
<VTKFile type="UnstructuredGrid"  version="0.1"  >
<UnstructuredGrid>
<Piece  NumberOfPoints="4989" NumberOfCells="7775">
<Points>
<DataArray  type="Float64"  NumberOfComponents="3"  format="ascii">0 0.01 0  0 0 0  0.01 0 0  0.02 0 0  0.03 0 0  0.04 0 0  0.05 0 0  0.06 0 0  0.07000000000000001 0 0  0.08 0 0  0.09 0 0  0.1 0 0  0.11 0 0  0.12 0 0  0.13 0 0  0.14 0 0  0.15 0 0  0.16 0 0  0.17 0 0  0.18 0 0  0.19 0 0  0.2 0 0  0.21 0 0  0.22 0 0  0.23 0 0  0.24 0 0  0.25 0 0  0.26 0 0  0.27 0 0  0.28 0 0  0.29 0 0  0.3 0 0  0.31 0 0  0.32 0 0  0.33 0 0  0.34 0 0  0.35 0 0  0.36 0 0  0.37 0 0  0.38 0 0  0.39 0 0  0.4 0 0  0.41 0 0  0.42 0 0  0.43 0 0  0.44 0 0  0.45 0 0  0.46 0 0  0.47 0 0  0.48 0 0  0.49 0 0  0.5 0 0  0.51 0 0  0.52 0 0  0.53 0 0  0.54 0 0  0.55 0 0  0.5600000000000001 0 0  0.57 0 0  0.58 0 0  0.59 0 0  0.6 0 0  0.61 0 0  0.62 0 0  0.63 0 0  0.64 0 0  0.65 0 0  0.66 0 0  0.67 0 0  0.68 0 0  0.6899999999999999 0 0  0.7 0 0  0.71 0 0  0.72 0 0  0.73 0 0  0.74 0 0  0.75 0 0  0.76 0 0  0.77 0 0  0.78 0 0  0.79 0 0  0.8 0 0  0.8100000000000001 0 0  0.82 0 0  0.83 0 0  0.84 0 0  0.85 0 0  0.86 0 0  0.87 0 0  0.88 0 0  0.89 0 0  0.9 0 0  0.91 0 0  0.92 0 0  0.93 0 0  0.9399999999999999 0 0  0.95 0 0  0.96 0 0  0.97 0 0  0.98 0 0  0.99 0 0  1 0 0  1.01 0 0  1.02 0 0  1.03 0 0  1.04 0 0  1.05 0 0  1.06 0 0  1.07 0 0  1.08 0 0  1.09 0 0  1.1 0 0  1.11 0 0  1.12 0 0  1.13 0 0  1.14 0 0  1.15 0 0  1.16 0 0  1.17 0 0  1.18 0 0  1.19 0 0  1.2 0 0  1.21 0 0  1.22 0 0  1.23 0 0  1.24 0 0  1.25 0 0  1.26 0 0  1.27 0 0  1.28 0 0  1.29 0 0  1.3 0 0  1.31 0 0  1.32 0 0  1.33 0 0  1.34 0 0  1.35 0 0  1.36 0 0  1.37 0 0  1.38 0 0  1.39 0 0  1.4 0 0  1.41 0 0  1.42 0 0  1.43 0 0  1.44 0 0  1.45 0 0  1.46 0 0  1.47 0 0  1.48 0 0  1.49 0 0  1.5 0 0  1.51 0 0  1.52 0 0  1.53 0 0  1.54 0 0  1.55 0 0  1.56 0 0  1.57 0 0  1.58 0 0  1.59 0 0  1.6 0 0  1.61 0 0  1.62 0 0  1.63 0 0  1.64 0 0  1.65 0 0  1.66 0 0  1.67 0 0  1.68 0 0  1.69 0 0  1.7 0 0  1.71 0 0  1.72 0 0  1.73 0 0  1.74 0 0  1.75 0 0  1.76 0 0  1.77 0 0  1.78 0 0  1.79 0 0  1.8 0 0  1.81 0 0  1.82 0 0  1.83 0 0  1.84 0 0  1.85 0 0  1.86 0 0  1.87 0 0  1.88 0 0  1.89 0 0  1.9 0 0  1.91 0 0  1.92 0 0  1.93 0 0  1.94 0 0  1.95 0 0  1.96 0 0  1.97 0 0  1.98 0 0  1.99 0 0  2 0 0  2.01 0 0  2.02 0 0  2.03 0 0  2.04 0 0  2.05 0 0  2.06 0 0  2.07 0 0  2.08 0 0  2.09 0 0  2.1 0 0  2.11 0 0  2.12 0 0  2.13 0 0  2.14 0 0  2.15 0 0  2.16 0 0  2.17 0 0  2.18 0 0  2.19 0 0  2.2 0 0  2.21 0 0  2.22 0 0  2.23 0 0  2.24 0 0  2.25 0 0  2.26 0 0  2.27 0 0  2.28 0 0  2.29 0 0  2.3 0 0  2.31 0 0  2.32 0 0  2.33 0 0  2.34 0 0  2.35 0 0  2.36 0 0  2.37 0 0  2.38 0 0  2.39 0 0  2.4 0 0  2.41 0 0  2.42 0 0  2.43 0 0  2.44 0 0  2.45 0 0  2.46 0 0  2.47 0 0  2.48 0 0  2.49 0 0  2.5 0 0  2.51 0 0  2.52 0 0  2.53 0 0  2.54 0 0  2.55 0 0  2.56 0 0  2.57 0 0  2.58 0 0  2.59 0 0  2.6 0 0  2.61 0 0  2.62 0 0  2.63 0 0  2.64 0 0  2.65 0 0  2.66 0 0  2.67 0 0  2.68 0 0  2.69 0 0  2.7 0 0  2.71 0 0  2.72 0 0  2.73 0 0  2.74 0 0  2.75 0 0  2.76 0 0  2.77 0 0  2.78 0 0  2.79 0 0  2.8 0 0  2.81 0 0  2.82 0 0  2.83 0 0  2.84 0 0  2.85 0 0  2.86 0 0  2.87 0 0  2.88 0 0  2.89 0 0  2.9 0 0  2.91 0 0  2.92 0 0  2.93 0 0  2.94 0 0  2.95 0 0  2.96 0 0  2.97 0 0  2.98 0 0  2.99 0 0  3 0 0  3.01 0 0  3.02 0 0  3.03 0 0  3.04 0 0  3.05 0 0  3.06 0 0  3.07 0 0  3.08 0 0  3.09 0 0  3.1 0 0  3.11 0 0  3.12 0 0  3.13 0 0  3.14 0 0  3.15 0 0  3.16 0 0  3.17 0 0  3.18 0 0  3.19 0 0  3.2 0 0  3.21 0 0  3.22 0 0  3.23 0 0  3.24 0 0  3.25 0 0  3.26 0 0  3.27 0 0  3.28 0 0  3.29 0 0  3.3 0 0  3.31 0 0  3.32 0 0  3.33 0 0  3.34 0 0  3.35 0 0  3.36 0 0  3.37 0 0  3.38 0 0  3.39 0 0  3.4 0 0  3.41 0 0  3.42 0 0  3.43 0 0  3.44 0 0  3.45 0 0  3.46 0 0  3.47 0 0  3.48 0 0  3.49 0 0  3.5 0 0  3.51 0 0  3.52 0 0  3.53 0 0  3.54 0 0  3.55 0 0  3.56 0 0  3.57 0 0  3.58 0 0  3.59 0 0  3.6 0 0  3.61 0 0  3.62 0 0  3.63 0 0  3.64 0 0  3.65 0 0  3.66 0 0  3.67 0 0  3.68 0 0  3.69 0 0  3.7 0 0  3.71 0 0  3.72 0 0  3.73 0 0  3.74 0 0  3.75 0 0  3.76 0 0  3.77 0 0  3.78 0 0  3.79 0 0  3.8 0 0  3.81 0 0  3.82 0 0  3.83 0 0  3.84 0 0  3.85 0 0  3.86 0 0  3.87 0 0  3.88 0 0  3.89 0 0  3.9 0 0  3.91 0 0  3.92 0 0  3.93 0 0  3.94 0 0  3.95 0 0  3.96 0 0  3.97 0 0  3.98 0 0  3.99 0 0  4 0 0  4.01 0 0  4.02 0 0  4.03 0 0  4.04 0 0  4.05 0 0  4.06 0 0  4.07 0 0  4.08 0 0  4.09 0 0  4.1 0 0  4.11 0 0  4.12 0 0  4.13 0 0  4.14 0 0  4.15 0 0  4.16 0 0  4.17 0 0  4.18 0 0  4.19 0 0  4.2 0 0  4.21 0 0  4.22 0 0  4.23 0 0  4.24 0 0  4.25 0 0  4.26 0 0  4.27 0 0  4.28 0 0  4.29 0 0  4.3 0 0  4.31 0 0  4.32 0 0  4.33 0 0  4.34 0 0  4.35 0 0  4.36 0 0  4.37 0 0  4.38 0 0  4.39 0 0  4.4 0 0  4.41 0 0  4.42 0 0  4.43 0 0  4.44 0 0  4.45 0 0  4.46 0 0  4.47 0 0  4.48 0 0  4.49 0 0  4.5 0 0  4.51 0 0  4.52 0 0  4.53 0 0  4.54 0 0  4.55 0 0  4.56 0 0  4.57 0 0  4.58 0 0  4.59 0 0  4.6 0 0  4.61 0 0  4.62 0 0  4.63 0 0  4.64 0 0  4.65 0 0  4.66 0 0  4.67 0 0  4.68 0 0  4.69 0 0  4.7 0 0  4.71 0 0  4.72 0 0  4.73 0 0  4.74 0 0  4.75 0 0  4.76 -0.1255810390586241 0  4.77 -0.2506664671286032 0  4.78 -0.3747626291714523 0  4.79 -0.49737977432971 0  4.8 -0.6180339887498927 0  4.81 -0.7362491053693513 0  4.82 -0.8515585831301485 0  4.83 -0.9635073482034314 0  4.84 -1.071653589957992 0  4.85 -1.175570504584943 0  4.86 -1.274847979497382 0  4.87 -1.369094211857378 0  4.88 -1.457937254842822 0  4.89 -1.541026485551576 0  4.9 -1.618033988749897 0  4.91 -1.688655851004031 0  4.92 -1.752613360087727 0  4.93 -1.809654104932038 0  4.94 -1.859552971776504 0  4.95 -1.902113032590308 0  4.96 -1.937166322257262 0  4.97 -1.964574501457377 0  4.98 -1.984229402628956 0  4.99 -1.996053456856543 0  5 -2 0  5.01 -1.996053456856543 0  5.02 -1.984229402628956 0  5.03 -1.964574501457377 0  5.04 -1.937166322257262 0  5.05 -1.902113032590308 0  5.06 -1.859552971776505 0  5.07 -1.809654104932037 0  5.08 -1.752613360087727 0  5.09 -1.688655851004031 0  5.1 -1.618033988749898 0  5.11 -1.541026485551576 0  5.12 -1.457937254842822 0  5.13 -1.369094211857378 0  5.14 -1.274847979497382 0  5.15 -1.175570504584943 0  5.16 -1.071653589957992 0  5.17 -0.9635073482034312 0  5.18 -0.851558583130149 0  5.19 -0.7362491053693513 0  5.2 -0.6180339887498926 0  5.21 -0.4973797743297105 0  5.22 -0.3747626291714526 0  5.23 -0.2506664671286038 0  5.24 -0.1255810390586245 0  5.25 -2.449293598294706e-16 0  5.26 0 0  5.27 0 0  5.28 0 0  5.29 0 0  5.3 0 0  5.31 0 0  5.32 0 0  5.33 0 0  5.34 0 0  5.35 0 0  5.36 0 0  5.37 0 0  5.38 0 0  5.39 0 0  5.4 0 0  5.41 0 0  5.42 0 0  5.43 0 0  5.44 0 0  5.45 0 0  5.46 0 0  5.47 0 0  5.48 0 0  5.49 0 0  5.5 0 0  5.51 0 0  5.52 0 0  5.53 0 0  5.54 0 0  5.55 0 0  5.56 0 0  5.57 0 0  5.58 0 0  5.59 0 0  5.6 0 0  5.61 0 0  5.62 0 0  5.63 0 0  5.64 0 0  5.65 0 0  5.66 0 0  5.67 0 0  5.68 0 0  5.69 0 0  5.7 0 0  5.71 0 0  5.72 0 0  5.73 0 0  5.74 0 0  5.75 0 0  5.76 0 0  5.77 0 0  5.78 0 0  5.79 0 0  5.8 0 0  5.81 0 0  5.82 0 0  5.83 0 0  5.84 0 0  5.85 0 0  5.86 0 0  5.87 0 0  5.88 0 0  5.89 0 0  5.9 0 0  5.91 0 0  5.92 0 0  5.93 0 0  5.94 0 0  5.95 0 0  5.96 0 0  5.97 0 0  5.98 0 0  5.99 0 0  6 0 0  6.01 0 0  6.02 0 0  6.03 0 0  6.04 0 0  6.05 0 0  6.06 0 0  6.07 0 0  6.08 0 0  6.09 0 0  6.1 0 0  6.11 0 0  6.12 0 0  6.13 0 0  6.14 0 0  6.15 0 0  6.16 0 0  6.17 0 0  6.18 0 0  6.19 0 0  6.2 0 0  6.21 0 0  6.22 0 0  6.23 0 0  6.24 0 0  6.25 0 0  6.26 0 0  6.27 0 0  6.28 0 0  6.29 0 0  6.3 0 0  6.31 0 0  6.32 0 0  6.33 0 0  6.34 0 0  6.35 0 0  6.36 0 0  6.37 0 0  6.38 0 0  6.39 0 0  6.4 0 0  6.41 0 0  6.42 0 0  6.43 0 0  6.44 0 0  6.45 0 0  6.46 0 0  6.47 0 0  6.48 0 0  6.49 0 0  6.5 0 0  6.51 0 0  6.52 0 0  6.53 0 0  6.54 0 0  6.55 0 0  6.56 0 0  6.57 0 0  6.58 0 0  6.59 0 0  6.6 0 0  6.61 0 0  6.62 0 0  6.63 0 0  6.64 0 0  6.65 0 0  6.66 0 0  6.67 0 0  6.68 0 0  6.69 0 0  6.7 0 0  6.71 0 0  6.72 0 0  6.73 0 0  6.74 0 0  6.75 0 0  6.76 0 0  6.77 0 0  6.78 0 0  6.79 0 0  6.8 0 0  6.81 0 0  6.82 0 0  6.83 0 0  6.84 0 0  6.85 0 0  6.86 0 0  6.87 0 0  6.88 0 0  6.89 0 0  6.9 0 0  6.91 0 0  6.92 0 0  6.93 0 0  6.94 0 0  6.95 0 0  6.96 0 0  6.97 0 0  6.98 0 0  6.99 0 0  7 0 0  7.01 0 0  7.02 0 0  7.03 0 0  7.04 0 0  7.05 0 0  7.06 0 0  7.07 0 0  7.08 0 0  7.09 0 0  7.1 0 0  7.11 0 0  7.12 0 0  7.13 0 0  7.14 0 0  7.15 0 0  7.16 0 0  7.17 0 0  7.18 0 0  7.19 0 0  7.2 0 0  7.21 0 0  7.22 0 0  7.23 0 0  7.24 0 0  7.25 0 0  7.26 0 0  7.27 0 0  7.28 0 0  7.29 0 0  7.3 0 0  7.31 0 0  7.32 0 0  7.33 0 0  7.34 0 0  7.35 0 0  7.36 0 0  7.37 0 0  7.38 0 0  7.39 0 0  7.4 0 0  7.41 0 0  7.42 0 0  7.43 0 0  7.44 0 0  7.45 0 0  7.46 0 0  7.47 0 0  7.48 0 0  7.49 0 0  7.5 0 0  7.51 0 0  7.52 0 0  7.53 0 0  7.54 0 0  7.55 0 0  7.56 0 0  7.57 0 0  7.58 0 0  7.59 0 0  7.6 0 0  7.61 0 0  7.62 0 0  7.63 0 0  7.64 0 0  7.65 0 0  7.66 0 0  7.67 0 0  7.68 0 0  7.69 0 0  7.7 0 0  7.71 0 0  7.72 0 0  7.73 0 0  7.74 0 0  7.75 0 0  7.76 0 0  7.77 0 0  7.78 0 0  7.79 0 0  7.8 0 0  7.81 0 0  7.82 0 0  7.83 0 0  7.84 0 0  7.85 0 0  7.86 0 0  7.87 0 0  7.88 0 0  7.89 0 0  7.9 0 0  7.91 0 0  7.92 0 0  7.93 0 0  7.94 0 0  7.95 0 0  7.96 0 0  7.97 0 0  7.98 0 0  7.99 0 0  8 0 0  8.01 0 0  8.02 0 0  8.029999999999999 0 0  8.039999999999999 0 0  8.050000000000001 0 0  8.06 0 0  8.07 0 0  8.08 0 0  8.09 0 0  8.1 0 0  8.109999999999999 0 0  8.119999999999999 0 0  8.130000000000001 0 0  8.140000000000001 0 0  8.15 0 0  8.16 0 0  8.17 0 0  8.18 0 0  8.19 0 0  8.199999999999999 0 0  8.210000000000001 0 0  8.220000000000001 0 0  8.23 0 0  8.24 0 0  8.25 0 0  8.26 0 0  8.27 0 0  8.279999999999999 0 0  8.289999999999999 0 0  8.300000000000001 0 0  8.31 0 0  8.32 0 0  8.33 0 0  8.34 0 0  8.35 0 0  8.359999999999999 0 0  8.369999999999999 0 0  8.380000000000001 0 0  8.390000000000001 0 0  8.4 0 0  8.41 0 0  8.42 0 0  8.43 0 0  8.44 0 0  8.449999999999999 0 0  8.460000000000001 0 0  8.470000000000001 0 0  8.48 0 0  8.49 0 0  8.5 0 0  8.51 0 0  8.52 0 0  8.529999999999999 0 0  8.539999999999999 0 0  8.550000000000001 0 0  8.56 0 0  8.57 0 0  8.58 0 0  8.59 0 0  8.6 0 0  8.609999999999999 0 0  8.619999999999999 0
[...]
<PointData  Scalars="f_2608"> 
<DataArray  type="Float64"  Name="f_2608"  format="ascii">1.0000000000000000e+00  1.0000000000000000e+00  8.4498177901534510e-01  7.4912948232591392e-01  6.7734051553139596e-01  6.2252827545144973e-01  5.7953123669182516e-01  5.4366146533455550e-01  5.1262453995069901e-01  4.8709125389988700e-01  4.6438867371732617e-01  4.4459797878135837e-01  4.2651888629642298e-01  4.1059225263371540e-01  3.9595644996576534e-01  3.8334822061245616e-01  3.7145474185533001e-01  3.6050417216904734e-01  3.5016125311976742e-01  3.4101608600435257e-01  3.3215879089319411e-01  3.2400691477309757e-01  3.1629707594320783e-01  3.0947298676146401e-01  3.0294238901895076e-01  2.9666671175413734e-01  2.9105920858601780e-01  2.8559158668206552e-01  2.8047069340199166e-01  2.7557767028280755e-01  2.7115068224888017e-01  2.6676555310028438e-01  2.6261499960345353e-01  2.5862437366571894e-01  2.5500711737230641e-01  2.5140687917661148e-01  2.4785353683548919e-01  2.4460101652401833e-01  2.4140048174810561e-01  2.3844051507017022e-01  2.3551938447458926e-01  2.3285752287949579e-01  2.3017558584390832e-01  2.2759787887348054e-01  2.2504592591064268e-01  2.2268473374126674e-01  2.2028393975604832e-01  2.1802806201620675e-01  2.1577826649165771e-01  2.1361495219820459e-01  2.1152177658793084e-01  2.0960967624586654e-01  2.0770361044358315e-01  2.0581208974834586e-01  2.0404049470218075e-01  2.0228370373987634e-01  2.0064621260710977e-01  1.9897982341741915e-01  1.9737424152410696e-01  1.9577502221200047e-01  1.9429642028494953e-01  1.9278777549038098e-01  1.9134185985177637e-01  1.8990476575691634e-01  1.8856436385173919e-01  1.8720406828965344e-01  1.8587427437809892e-01  1.8463752296155311e-01  1.8336809899008910e-01  1.8211432937662733e-01  1.8087305120036695e-01  1.7971508150022117e-01  1.7853670881507866e-01  1.7742816948568935e-01  1.7629296342980125e-01  1.7519213620252155e-01  1.7410552801227322e-01  1.7307609752411340e-01  1.7203470223877174e-01  1.7106860685234174e-01  1.7008155276502421e-01  1.6912635217213598e-01  1.6815914001065047e-01  1.6720646599197247e-01  1.6630338522452914e-01  1.6536468359837389e-01  1.6446262031080902e-01  1.6356910796765947e-01  1.6272607994759811e-01  1.6187586241358690e-01  1.6108803456614737e-01  1.6028314868097435e-01  1.5950517800262071e-01  1.5871790707534469e-01  1.5794233620145218e-01  1.5720759685065441e-01  1.5644358388703508e-01  1.5569347068588757e-01  1.5494486047144920e-01  1.5424397359473058e-01  1.5352530730559066e-01  1.5280339915842969e-01  1.5211440875962295e-01  1.5141209067722261e-01  1.5074532748757460e-01  1.5005623294127668e-01  1.4936943303749362e-01  1.4868665552882898e-01  1.4804268962108780e-01  1.4737658708826909e-01  1.4670728466170138e-01  1.4607209831170062e-01  1.4542707842857669e-01  1.4481812308069456e-01  1.4419231911319200e-01  1.4357199105318297e-01  1.4298999603024376e-01  1.4238947497941548e-01  1.4178288163635877e-01  1.4118243455445853e-01  1.4061049443378168e-01  1.4003318312379484e-01  1.3949024416056413e-01  1.3892436446931458e-01  1.3838950381655540e-01  1.3783004344620439e-01  1.3728127751575786e-01  1.3672058853235297e-01  1.3616698956958623e-01  1.3564179905959478e-01  1.3510160181878117e-01  1.3459708046492549e-01  1.3407594208832832e-01  1.3357305469615108e-01  1.3306450405369341e-01  1.3255691836436242e-01  1.3206890837819768e-01  1.3157587736756537e-01  1.3110897044953565e-01  1.3062295737374158e-01  1.3015575440080729e-01  1.2967827688590206e-01  1.2920602380437984e-01  1.2873547987739500e-01  1.2828997041804846e-01  1.2783157657129723e-01  1.2737079272940896e-01  1.2692511840411214e-01  1.2647183133710357e-01  1.2604376309178306e-01  1.2559785879324406e-01  1.2516197186454475e-01  1.2472026241411974e-01  1.2430172457812246e-01  1.2386997537404310e-01  1.2344779522488025e-01  1.2301299969365406e-01  1.2258272520121340e-01  1.2217163049003665e-01  1.2174316661416655e-01  1.2131792903367643e-01  1.2089897049871251e-01  1.2050140177640141e-01  1.2009151676485841e-01  1.1968347615801009e-01  1.1929330453820461e-01  1.1888924607869664e-01  1.1850736559999622e-01  1.1810809975809929e-01  1.1771664579249790e-01  1.1732468648418820e-01  1.1695775690068289e-01  1.1657641182225070e-01  1.1619145610919722e-01  1.1582810563244296e-01  1.1545296557199668e-01  1.1508268239386987e-01  1.1471206664639640e-01  1.1436182487999891e-01  1.1399901831214039e-01  1.1363268345560582e-01  1.1327941086823366e-01  1.1292163319573947e-01  1.1258244336803601e-01  1.1222736481750609e-01  1.1186815488276990e-01  1.1152587884491685e-01  1.1117025353054152e-01  1.1082900284261758e-01  1.1047280047159971e-01  1.1012176131523051e-01  1.0977474057394232e-01  1.0944838998650883e-01  1.0910828403275274e-01  1.0876261344867344e-01  1.0843281173060436e-01  1.0809023607106492e-01  1.0775798158032500e-01  1.0741557137402218e-01  1.0707663034997740e-01  1.0675489165016981e-01  1.0642016467912842e-01  1.0609058354554339e-01  1.0576303482930247e-01  1.0545226079749839e-01  1.0512630394459309e-01  1.0479521048125474e-01  1.0448044225344644e-01  1.0415454047663611e-01  1.0384176246315488e-01  1.0351846766421501e-01  1.0319741154628399e-01  1.0288048592304401e-01  1.0257614599232802e-01  1.0226416430167157e-01  1.0196759579097783e-01  1.0165784688355821e-01  1.0135733744652302e-01  1.0104713990823930e-01  1.0073588718819064e-01  1.0042391692652684e-01  1.0012499453136867e-01  9.9819240745501331e-02  9.9531677291228901e-02  9.9231328807389899e-02  9.8924723994823965e-02  9.8631343605313324e-02  9.8325856842339771e-02  9.8019675015173890e-02  9.7715324049067687e-02  9.7427367850658100e-02  9.7126967673635739e-02  9.6823688586634787e-02  9.6537525751963282e-02  9.6244676705029675e-02  9.5950884463746444e-02  9.5667619904843848e-02  9.5380640531259622e-02  9.5107980525626148e-02  9.4823190246350775e-02  9.4541962808706873e-02  9.4259737168500793e-02  9.3992976633184178e-02  9.3715031641679242e-02  9.3434451770299104e-02  9.3166648948688341e-02  9.2888488786224438e-02  9.2612194972691533e-02  9.2331351951381785e-02  9.2065408334127852e-02  9.1788798729020585e-02  9.1525467645352146e-02  9.1250678970064836e-02  9.0979939370083335e-02  9.0710673050351937e-02  9.0454449940452916e-02  9.0184915256036141e-02  8.9910521832486975e-02  8.9649177778089464e-02  8.9378083265514358e-02  8.9117708482554334e-02  8.8848319654134797e-02  8.8580942451718089e-02  8.8317241828323748e-02  8.8065931964127736e-02  8.7805802543842987e-02  8.7546531125654067e-02  8.7298671770650316e-02  8.7039586034605487e-02  8.6780132277730362e-02  8.6521673847737693e-02  8.6276730750867434e-02  8.6022933071288624e-02  8.5766856027944982e-02  8.5521784969767464e-02  8.5268500568111485e-02  8.5015890537147185e-02  8.4773429815907617e-02  8.4521151659780469e-02  8.4270526246349467e-02  8.4033826339712014e-02  8.3787750270848504e-02  8.3541080754674424e-02  8.3296082960491000e-02  8.3062414209428351e-02  8.2819948624388171e-02  8.2581946115537985e-02  8.2355395093278799e-02  8.2116032021273405e-02  8.1882361324766312e-02  8.1640746648176499e-02  8.1401655005714973e-02  8.1166479418794985e-02  8.0943829487048938e-02  8.0711460646536670e-02  8.0476823842504611e-02  8.0252958246147130e-02  8.0020525090572475e-02  7.9789739584444477e-02  7.9555186619755511e-02  7.9332759283153101e-02  7.9101074518300230e-02  7.8880084089668276e-02  7.8649028777890262e-02  7.8421003306270567e-02  7.8193871295807335e-02  7.7977437884634695e-02  7.7749440788765861e-02  7.7517121352801671e-02  7.7295568567520678e-02  7.7065453712938020e-02  7.6844206408735155e-02  7.6615057405009984e-02  7.6387500816376630e-02  7.6162994058534328e-02  7.5949018409174451e-02  7.5727514520930309e-02  7.5506733018272307e-02  7.5295657841654678e-02  7.5075010205565576e-02  7.4853871889504403e-02  7.4634108239235372e-02  7.4425373374982201e-02  7.4207588541160233e-02  7.3988417477629298e-02  7.3778742047696785e-02  7.3561994899713004e-02  7.3354935137855432e-02  7.3139506584056949e-02  7.2924691290432678e-02  7.2711667122073928e-02  7.2508110612983956e-02  7.2296785583194689e-02  7.2085586832139781e-02  7.1882230586569604e-02  7.1670922961693903e-02  7.1470144381064818e-02  7.1259130188651765e-02  7.1051384911731755e-02  7.0842417196068250e-02  7.0645343130701838e-02  7.0439030802618749e-02  7.0243456161740644e-02  7.0037950791298487e-02  6.9835599248180807e-02  6.9631336013172951e-02  6.9439274460603564e-02  6.9239521810816482e-02  6.9048887991167554e-02  6.8852718909656108e-02  6.8656213153579407e-02  6.8468375455285252e-02  6.8273281893683327e-02  6.8077164117347849e-02  6.7881208323127870e-02  6.7695244357280360e-02  6.7502790644321256e-02  6.7308309448288972e-02  6.7121662880343422e-02  6.6928515660260618e-02  6.6734883934912836e-02  6.6545868526584964e-02  6.6351925245770410e-02  6.6166897015374426e-02  6.5972120431902245e-02  6.5780189253324545e-02  6.5584160640916808e-02  6.5396734050653840e-02  6.5201497758293731e-02  6.5009514493464191e-02  6.4827621760776832e-02  6.4636530576192633e-02  6.4449675939576581e-02  6.4259682318748998e-02  6.4071970202275633e-02  6.3892486556294009e-02  6.3706393782291010e-02  6.3530128547247280e-02  6.3345419922191684e-02  6.3163446685198868e-02  6.2980038216802217e-02  6.2806876093661354e-02  6.2625920699373006e-02  6.2443847257518087e-02  6.2271869782282947e-02  6.2093061994146014e-02  6.1912455221491879e-02  6.1740176407043462e-02  6.1563195419223081e-02  6.1392856655592534e-02  6.1218285147786586e-02  6.1054012354141561e-02  6.0882487259635916e-02  6.0714713715765416e-02  6.0542052429769323e-02  6.0369958053224482e-02  6.0204454711063893e-02  6.0030740829029046e-02  5.9858366483568119e-02  5.9684392791244309e-02  5.9516416580008238e-02  5.9343174298125724e-02  5.9180328344684230e-02  5.9011865216547471e-02  5.8847703242920366e-02  5.8680481957566005e-02  5.8514704288426839e-02  5.8355530639516921e-02  5.8192804995235270e-02  5.8040451728092926e-02  5.7882358151252450e-02  5.7727291994270888e-02  5.7570371832000589e-02  5.7421444138085816e-02  5.7265935725958068e-02  5.7115537774837077e-02  5.6960742731359704e-02  5.6807018548292801e-02  5.6652431864315539e-02  5.6506162379149683e-02  5.6354903742663456e-02  5.6211244900940628e-02  5.6062481079337950e-02  5.5915205295721665e-02  5.5776031456594398e-02  5.5630815246481016e-02  5.5489696925204841e-02  5.5345852154645374e-02  5.5203654883657492e-02  5.5069970325089319e-02  5.4931746844202448e-02  5.4792057311913472e-02  5.4654729088620631e-02  5.4525851138525323e-02  5.4394176092988016e-02  5.4270165116348662e-02  5.4143984840990783e-02  5.4020389107844263e-02  5.3905471511032900e-02  5.3787658491030094e-02  5.3673739119880076e-02  5.3561917686734177e-02  5.3458840731197603e-02  5.3354441078593884e-02  5.3254285492846234e-02  5.3156838974844557e-02  5.3068350930589293e-02  5.2979468588929129e-02  5.2892329565299295e-02  5.2814238890276498e-02  5.2739745434658862e-02  5.2674383208742508e-02  5.2611139622475059e-02  5.2555836501309829e-02  5.2502637612412202e-02  5.2456143433022684e-02  5.2415903243119684e-02  5.2386843471094971e-02  5.2365957375214975e-02  5.2357036185725597e-02  5.2359773492629942e-02  5.2370902174665140e-02  5.2400712693536473e-02  5.2448247216070012e-02  5.2511003438995195e-02  5.2595698225073977e-02  5.2700743046708749e-02  5.2828660272969036e-02  5.2990970535201187e-02  5.3183045265689149e-02  5.3407856939319882e-02  5.3655289644467863e-02  5.3948073012023742e-02  5.4259278692561995e-02  5.4616928533564431e-02  5.4927385686550048e-02  5.4795435694848654e-02  2.3234439722290386e-02  1.1723493459717642e-02  6.0862305203095079e-03  3.4676423397824964e-03  1.8099056445528860e-03  9.7314306072068390e-04  5.0288947742470227e-04  2.7356938666909028e-04  1.3857583310201128e-04  7.4104326240784707e-05  3.9442043491013226e-05  1.9084762939031798e-05  1.0633828809798183e-05  5.7904503650769353e-06  2.8490104250064165e-06  1.6179821723286612e-06  8.4424080453739846e-07  5.1223494168188350e-07  3.0448123376740365e-07  1.7987098762473764e-07  1.1457895475904239e-07  8.0178674126008302e-08  6.2594791579411361e-08  5.4571650641267073e-08  5.2320026101776729e-08  5.4571724214700510e-08  6.2594986236181652e-08  8.0179100295554635e-08  1.1457987257827853e-07  1.7987353796660851e-07  3.0448785372296950e-07  5.1225489282797196e-07  8.4434154451506913e-07  1.6183248560876097e-06  2.8507799013085891e-06  5.7966661656182992e-06  1.0667555030018270e-05  1.9040283695268622e-05  3.9367591399141984e-05  7.1542349896804212e-05  1.3986314363905088e-04  2.6666406558564705e-04  5.1563124204415253e-04  9.9840851676504406e-04  1.7747243041171493e-03  3.4740847122504965e-03  6.0882458043095963e-03  1.1636588806068066e-02  2.1009355090658023e-02  4.8836925293425065e-02  4.8390713457691949e-02  4.7849830803410709e-02  4.7342989510130704e-02  4.6820015503424524e-02  4.6339229740618118e-02  4.5873702612417008e-02  4.5440676326056154e-02  4.5031276664601619e-02  4.4664311554670044e-02  4.4307223233840981e-02  4.3984035489905919e-02  4.3666955026735677e-02  4.3368450251783083e-02  4.3085553893268853e-02  4.2828512021059195e-02  4.2571262612343001e-02  4.2317347945432238e-02  4.2083737376685512e-02  4.1850118773141896e-02  4.1629416441172760e-02  4.1412590728346965e-02  4.1214017764944794e-02  4.1013508038529538e-02  4.0820764158171534e-02  4.0629355966272492e-02  4.0451797133137499e-02  4.0272045770166708e-02  4.0098981322705313e-02  3.9924201060826475e-02  3.9753042952596664e-02  3.9592684972883770e-02  3.9428708011099968e-02  3.9267862563781050e-02  3.9111051908872346e-02  3.8963796310657155e-02  3.8813601384608556e-02  3.8665104910690071e-02  3.8525347730450174e-02  3.8381123355405271e-02  3.8239501988652981e-02  3.8098476836359828e-02  3.7965200089450910e-02  3.7827368384945506e-02  3.7692578991431830e-02  3.7565338457115890e-02  3.7431951620863713e-02  3.7301510093651583e-02  3.7171330481912075e-02  3.7049717028579822e-02  3.6924073103691064e-02  3.6804936434159510e-02  3.6683145597117654e-02  3.6560703791411436e-02  3.6443187687467578e-02  3.6324806285702421e-02  3.6212819859223824e-02  3.6095881520229627e-02  3.5977671965833402e-02  3.5865126856526208e-02  3.5748404151634647e-02  3.5636481769926467e-02  3.5519863288659595e-02  3.5404941599939406e-02  3.5291474268720258e-02  3.5184239085511666e-02  3.5072386667770308e-02  3.4959284562129767e-02  3.4851580650958627e-02  3.4739975190710683e-02  3.4629329317371192e-02  3.4517152639314465e-02  3.4411344924457347e-02  3.4302012941168185e-02  3.4198208808234258e-02  3.4090459970988474e-02  3.3984580303060709e-02  3.3879611306572452e-02  3.3780339227517733e-02  3.3676564278288003e-02  3.3570900342325190e-02  3.3470269274214967e-02  3.3366490987866516e-02  3.3267645120916511e-02  3.3165108278404763e-02  3.3063348559108988e-02  3.2962703590421291e-02  3.2866178075837818e-02  3.2767236278172698e-02  3.2673291889988028e-02  3.2575293058690932e-02  3.2480306354149238e-02  3.2382353348525683e-02  3.2284222796709824e-02  3.2186094240245162e-02  3.2092855145296188e-02  3.1996369609732588e-02  3.1903786022635522e-02  3.1807952214862177e-02  3.1712997619960007e-02  3.1622974947886191e-02  3.1528839781676740e-02  3.1436493479670986e-02  3.1341973684121220e-02  3.1248529532939450e-02  3.1159509882719375e-02  3.1066625848630056e-02  3.0974574500738157e-02  3.0882129786042229e-02  3.0793884610722293e-02  3.0701801952398362e-02  3.0611175138806519e-02  3.0525067992512131e-02  3.0434246107863189e-02  3.0344632305882514e-02  3.0254830681199409e-02  3.0170459011092485e-02  3.0083102981587201e-02  2.9997638625164639e-02  2.9910066706121834e-02  2.9823287836000037e-02  2.9740166764366967e-02  2.9652953394073842e-02  2.9565223233285545e-02  2.9477544140532427e-02  2.9394444199592858e-02  2.9308327973370584e-02  2.9221283766310308e-02  2.9137429302268900e-02  2.9051939515289279e-02  2.8970287536722868e-02  2.8885110032339050e-02  2.8800270813845709e-02  2.8715066372428655e-02  2.8634290890181002e-02  2.8550185785340562e-02  2.8465412733638302e-02  2.8384298681513796e-02  2.8301047598338291e-02  2.8221536721885491e-02  2.8138849412811417e-02  2.8056864157809752e-02  2.7978894709117158e-02  2.7897015756457758e-02  2.7816055895270943e-02  2.7734188587161358e-02  2.7656477798371503e-02  2.7574980001812095e-02  2.7495035535160160e-02  2.7413772933306369e-02  2.7336959237359047e-02  2.7256398012312028e-02  2.7175200714767710e-02  2.7098701037034226e-02  2.7019179350832871e-02  2.6938983220468508e-02  2.6863169186340127e-02  2.6785260880972366e-02  2.6706827878230765e-02  2.6630987223991057e-02  2.6553937099993499e-02  2.6480464317767346e-02  2.6403441329791878e-02  2.6327278823118215e-02  2.6250774549628007e-02  2.6178456548110848e-02  2.6103100200692633e-02  2.6027032606271823e-02  2.5954436201589333e-02  2.5879039671566215e-02  2.5804150815410917e-02  2.5728029591776506e-02  2.5655944608077585e-02  2.5580966169577956e-02  2.5509586583580077e-02  2.5435100783526485e-02  2.5361720236449697e-02  2.5288747876782064e-02  2.5219320899004825e-02  2.5146298141691802e-02  2.5071967983086446e-02  2.5001188448918025e-02  2.4927784697272318e-02  2.4857287413461077e-02  2.4784353397871592e-02  2.4711936455221312e-02  2.4640475808064728e-02  2.4572316113628201e-02  2.4501704686833960e-02  2.4431284986155405e-02  2.4363871613889716e-02  2.4293307197821468e-02  2.4222519459203139e-02  2.4151856717391697e-02  2.4084660356772890e-02  2.4014793283967047e-02  2.3944173273130236e-02  2.3876378953703682e-02  2.3806093380540239e-02  2.3735662496277347e-02  2.3667243969867455e-02  2.3597259105507796e-02  2.3530985843344801e-02  2.3461550606891233e-02  2.3395182778866326e-02  2.3326562268927899e-02  2.3257302242598400e-02  2.3190450986682144e-02  2.3122798250736279e-02  2.3058715129737551e-02  2.2991390039879843e-02  2.2927539424886779e-02  2.2860474244458858e-02  2.2795049596763633e-02  2.2727785027922033e-02  2.2660731550029171e-02  2.2595190478137808e-02  2.2532981038616947e-02  2.2468025903867938e-02  2.2402728319748846e-02  2.2340234741165650e-02  2.2275198139661074e-02  2.2210040478069716e-02  2.2144450244575009e-02  2.2082292804818569e-02  2.2017828393957571e-02  2.1956660035568523e-02  2.1893282224052797e-02  2.1829552925124333e-02  2.1766334165665525e-02  2.1705790223248773e-02  2.1642810834901931e-02  2.1579189986265599e-02  2.1515309626191796e-02  2.1454106768313233e-02  2.1390612601380740e-02  2.1329960094977944e-02  2.1266857688075923e-02  2.1204025375152206e-02  2.1141976704696652e-02  2.1082843934800831e-02  2.1021626918585713e-02  2.0960607306630661e-02  2.0902261327661462e-02  2.0841234461235262e-02  2.0780245579109579e-02  2.0719336746474599e-02  2.0661635738849139e-02  2.0601847773596135e-02  2.0541530342844231e-02  2.0483792411252505e-02  2.0424091210685235e-02  2.0364558344273198e-02  2.0307393627505693e-02  2.0247840967444978e-02  2.0188911115656117e-02  2.0133354580988930e-02  2.0075607550800571e-02  2.0017759682871679e-02  1.9960168767478161e-02  1.9905078320515270e-02  1.9847731794577654e-02  1.9791370125994783e-02  1.9737636763304808e-02  1.9680743253182316e-02  1.9625336702229167e-02  1.9567969604562040e-02  1.9510998403559333e-02  1.9454937173869889e-02  1.9401770518030399e-02  1.9346193106924797e-02  1.9290023052329668e-02  1.9236324396001394e-02  1.9180460251946262e-02  1.9124892082791802e-02  1.9068370092329645e-02  1.9014806896385204e-02  1.8959074700746280e-02  1.8905972625787453e-02  1.8850534993552659e-02  1.8795838700718749e-02  1.8741418395691968e-02  1.8689793287964610e-02  1.8635658995681509e-02  1.8580430741232268e-02  1.8527707772127470e-02  1.8473206077497077e-02  1.8421222126714262e-02  1.8367220721515747e-02  1.8313484579783452e-02  1.8260440277756439e-02  1.8209897889287469e-02  1.8157583662384024e-02  1.8105438903445611e-02  1.8055572058670349e-02  1.8003406748628503e-02  1.7951258881329920e-02  1.7899161356696933e-02  1.7849782331420799e-02  1.7798590645313150e-02  1.7746930131135517e-02  1.7697449505047071e-02  1.7646255632005961e-02  1.7595186166607