<?xml version="1.0"?>
<VTKFile type="UnstructuredGrid"  version="0.1"  >
<UnstructuredGrid>
<Piece  NumberOfPoints="4989" NumberOfCells="7775">
<Points>
<DataArray  type="Float64"  NumberOfComponents="3"  format="ascii">0 0.01 0  0 0 0  0.01 0 0  0.02 0 0  0.03 0 0  0.04 0 0  0.05 0 0  0.06 0 0  0.07000000000000001 0 0  0.08 0 0  0.09 0 0  0.1 0 0  0.11 0 0  0.12 0 0  0.13 0 0  0.14 0 0  0.15 0 0  0.16 0 0  0.17 0 0  0.18 0 0  0.19 0 0  0.2 0 0  0.21 0 0  0.22 0 0  0.23 0 0  0.24 0 0  0.25 0 0  0.26 0 0  0.27 0 0  0.28 0 0  0.29 0 0  0.3 0 0  0.31 0 0  0.32 0 0  0.33 0 0  0.34 0 0  0.35 0 0  0.36 0 0  0.37 0 0  0.38 0 0  0.39 0 0  0.4 0 0  0.41 0 0  0.42 0 0  0.43 0 0  0.44 0 0  0.45 0 0  0.46 0 0  0.47 0 0  0.48 0 0  0.49 0 0  0.5 0 0  0.51 0 0  0.52 0 0  0.53 0 0  0.54 0 0  0.55 0 0  0.5600000000000001 0 0  0.57 0 0  0.58 0 0  0.59 0 0  0.6 0 0  0.61 0 0  0.62 0 0  0.63 0 0  0.64 0 0  0.65 0 0  0.66 0 0  0.67 0 0  0.68 0 0  0.6899999999999999 0 0  0.7 0 0  0.71 0 0  0.72 0 0  0.73 0 0  0.74 0 0  0.75 0 0  0.76 0 0  0.77 0 0  0.78 0 0  0.79 0 0  0.8 0 0  0.8100000000000001 0 0  0.82 0 0  0.83 0 0  0.84 0 0  0.85 0 0  0.86 0 0  0.87 0 0  0.88 0 0  0.89 0 0  0.9 0 0  0.91 0 0  0.92 0 0  0.93 0 0  0.9399999999999999 0 0  0.95 0 0  0.96 0 0  0.97 0 0  0.98 0 0  0.99 0 0  1 0 0  1.01 0 0  1.02 0 0  1.03 0 0  1.04 0 0  1.05 0 0  1.06 0 0  1.07 0 0  1.08 0 0  1.09 0 0  1.1 0 0  1.11 0 0  1.12 0 0  1.13 0 0  1.14 0 0  1.15 0 0  1.16 0 0  1.17 0 0  1.18 0 0  1.19 0 0  1.2 0 0  1.21 0 0  1.22 0 0  1.23 0 0  1.24 0 0  1.25 0 0  1.26 0 0  1.27 0 0  1.28 0 0  1.29 0 0  1.3 0 0  1.31 0 0  1.32 0 0  1.33 0 0  1.34 0 0  1.35 0 0  1.36 0 0  1.37 0 0  1.38 0 0  1.39 0 0  1.4 0 0  1.41 0 0  1.42 0 0  1.43 0 0  1.44 0 0  1.45 0 0  1.46 0 0  1.47 0 0  1.48 0 0  1.49 0 0  1.5 0 0  1.51 0 0  1.52 0 0  1.53 0 0  1.54 0 0  1.55 0 0  1.56 0 0  1.57 0 0  1.58 0 0  1.59 0 0  1.6 0 0  1.61 0 0  1.62 0 0  1.63 0 0  1.64 0 0  1.65 0 0  1.66 0 0  1.67 0 0  1.68 0 0  1.69 0 0  1.7 0 0  1.71 0 0  1.72 0 0  1.73 0 0  1.74 0 0  1.75 0 0  1.76 0 0  1.77 0 0  1.78 0 0  1.79 0 0  1.8 0 0  1.81 0 0  1.82 0 0  1.83 0 0  1.84 0 0  1.85 0 0  1.86 0 0  1.87 0 0  1.88 0 0  1.89 0 0  1.9 0 0  1.91 0 0  1.92 0 0  1.93 0 0  1.94 0 0  1.95 0 0  1.96 0 0  1.97 0 0  1.98 0 0  1.99 0 0  2 0 0  2.01 0 0  2.02 0 0  2.03 0 0  2.04 0 0  2.05 0 0  2.06 0 0  2.07 0 0  2.08 0 0  2.09 0 0  2.1 0 0  2.11 0 0  2.12 0 0  2.13 0 0  2.14 0 0  2.15 0 0  2.16 0 0  2.17 0 0  2.18 0 0  2.19 0 0  2.2 0 0  2.21 0 0  2.22 0 0  2.23 0 0  2.24 0 0  2.25 0 0  2.26 0 0  2.27 0 0  2.28 0 0  2.29 0 0  2.3 0 0  2.31 0 0  2.32 0 0  2.33 0 0  2.34 0 0  2.35 0 0  2.36 0 0  2.37 0 0  2.38 0 0  2.39 0 0  2.4 0 0  2.41 0 0  2.42 0 0  2.43 0 0  2.44 0 0  2.45 0 0  2.46 0 0  2.47 0 0  2.48 0 0  2.49 0 0  2.5 0 0  2.51 0 0  2.52 0 0  2.53 0 0  2.54 0 0  2.55 0 0  2.56 0 0  2.57 0 0  2.58 0 0  2.59 0 0  2.6 0 0  2.61 0 0  2.62 0 0  2.63 0 0  2.64 0 0  2.65 0 0  2.66 0 0  2.67 0 0  2.68 0 0  2.69 0 0  2.7 0 0  2.71 0 0  2.72 0 0  2.73 0 0  2.74 0 0  2.75 0 0  2.76 0 0  2.77 0 0  2.78 0 0  2.79 0 0  2.8 0 0  2.81 0 0  2.82 0 0  2.83 0 0  2.84 0 0  2.85 0 0  2.86 0 0  2.87 0 0  2.88 0 0  2.89 0 0  2.9 0 0  2.91 0 0  2.92 0 0  2.93 0 0  2.94 0 0  2.95 0 0  2.96 0 0  2.97 0 0  2.98 0 0  2.99 0 0  3 0 0  3.01 0 0  3.02 0 0  3.03 0 0  3.04 0 0  3.05 0 0  3.06 0 0  3.07 0 0  3.08 0 0  3.09 0 0  3.1 0 0  3.11 0 0  3.12 0 0  3.13 0 0  3.14 0 0  3.15 0 0  3.16 0 0  3.17 0 0  3.18 0 0  3.19 0 0  3.2 0 0  3.21 0 0  3.22 0 0  3.23 0 0  3.24 0 0  3.25 0 0  3.26 0 0  3.27 0 0  3.28 0 0  3.29 0 0  3.3 0 0  3.31 0 0  3.32 0 0  3.33 0 0  3.34 0 0  3.35 0 0  3.36 0 0  3.37 0 0  3.38 0 0  3.39 0 0  3.4 0 0  3.41 0 0  3.42 0 0  3.43 0 0  3.44 0 0  3.45 0 0  3.46 0 0  3.47 0 0  3.48 0 0  3.49 0 0  3.5 0 0  3.51 0 0  3.52 0 0  3.53 0 0  3.54 0 0  3.55 0 0  3.56 0 0  3.57 0 0  3.58 0 0  3.59 0 0  3.6 0 0  3.61 0 0  3.62 0 0  3.63 0 0  3.64 0 0  3.65 0 0  3.66 0 0  3.67 0 0  3.68 0 0  3.69 0 0  3.7 0 0  3.71 0 0  3.72 0 0  3.73 0 0  3.74 0 0  3.75 0 0  3.76 0 0  3.77 0 0  3.78 0 0  3.79 0 0  3.8 0 0  3.81 0 0  3.82 0 0  3.83 0 0  3.84 0 0  3.85 0 0  3.86 0 0  3.87 0 0  3.88 0 0  3.89 0 0  3.9 0 0  3.91 0 0  3.92 0 0  3.93 0 0  3.94 0 0  3.95 0 0  3.96 0 0  3.97 0 0  3.98 0 0  3.99 0 0  4 0 0  4.01 0 0  4.02 0 0  4.03 0 0  4.04 0 0  4.05 0 0  4.06 0 0  4.07 0 0  4.08 0 0  4.09 0 0  4.1 0 0  4.11 0 0  4.12 0 0  4.13 0 0  4.14 0 0  4.15 0 0  4.16 0 0  4.17 0 0  4.18 0 0  4.19 0 0  4.2 0 0  4.21 0 0  4.22 0 0  4.23 0 0  4.24 0 0  4.25 0 0  4.26 0 0  4.27 0 0  4.28 0 0  4.29 0 0  4.3 0 0  4.31 0 0  4.32 0 0  4.33 0 0  4.34 0 0  4.35 0 0  4.36 0 0  4.37 0 0  4.38 0 0  4.39 0 0  4.4 0 0  4.41 0 0  4.42 0 0  4.43 0 0  4.44 0 0  4.45 0 0  4.46 0 0  4.47 0 0  4.48 0 0  4.49 0 0  4.5 0 0  4.51 0 0  4.52 0 0  4.53 0 0  4.54 0 0  4.55 0 0  4.56 0 0  4.57 0 0  4.58 0 0  4.59 0 0  4.6 0 0  4.61 0 0  4.62 0 0  4.63 0 0  4.64 0 0  4.65 0 0  4.66 0 0  4.67 0 0  4.68 0 0  4.69 0 0  4.7 0 0  4.71 0 0  4.72 0 0  4.73 0 0  4.74 0 0  4.75 0 0  4.76 -0.1255810390586241 0  4.77 -0.2506664671286032 0  4.78 -0.3747626291714523 0  4.79 -0.49737977432971 0  4.8 -0.6180339887498927 0  4.81 -0.7362491053693513 0  4.82 -0.8515585831301485 0  4.83 -0.9635073482034314 0  4.84 -1.071653589957992 0  4.85 -1.175570504584943 0  4.86 -1.274847979497382 0  4.87 -1.369094211857378 0  4.88 -1.457937254842822 0  4.89 -1.541026485551576 0  4.9 -1.618033988749897 0  4.91 -1.688655851004031 0  4.92 -1.752613360087727 0  4.93 -1.809654104932038 0  4.94 -1.859552971776504 0  4.95 -1.902113032590308 0  4.96 -1.937166322257262 0  4.97 -1.964574501457377 0  4.98 -1.984229402628956 0  4.99 -1.996053456856543 0  5 -2 0  5.01 -1.996053456856543 0  5.02 -1.984229402628956 0  5.03 -1.964574501457377 0  5.04 -1.937166322257262 0  5.05 -1.902113032590308 0  5.06 -1.859552971776505 0  5.07 -1.809654104932037 0  5.08 -1.752613360087727 0  5.09 -1.688655851004031 0  5.1 -1.618033988749898 0  5.11 -1.541026485551576 0  5.12 -1.457937254842822 0  5.13 -1.369094211857378 0  5.14 -1.274847979497382 0  5.15 -1.175570504584943 0  5.16 -1.071653589957992 0  5.17 -0.9635073482034312 0  5.18 -0.851558583130149 0  5.19 -0.7362491053693513 0  5.2 -0.6180339887498926 0  5.21 -0.4973797743297105 0  5.22 -0.3747626291714526 0  5.23 -0.2506664671286038 0  5.24 -0.1255810390586245 0  5.25 -2.449293598294706e-16 0  5.26 0 0  5.27 0 0  5.28 0 0  5.29 0 0  5.3 0 0  5.31 0 0  5.32 0 0  5.33 0 0  5.34 0 0  5.35 0 0  5.36 0 0  5.37 0 0  5.38 0 0  5.39 0 0  5.4 0 0  5.41 0 0  5.42 0 0  5.43 0 0  5.44 0 0  5.45 0 0  5.46 0 0  5.47 0 0  5.48 0 0  5.49 0 0  5.5 0 0  5.51 0 0  5.52 0 0  5.53 0 0  5.54 0 0  5.55 0 0  5.56 0 0  5.57 0 0  5.58 0 0  5.59 0 0  5.6 0 0  5.61 0 0  5.62 0 0  5.63 0 0  5.64 0 0  5.65 0 0  5.66 0 0  5.67 0 0  5.68 0 0  5.69 0 0  5.7 0 0  5.71 0 0  5.72 0 0  5.73 0 0  5.74 0 0  5.75 0 0  5.76 0 0  5.77 0 0  5.78 0 0  5.79 0 0  5.8 0 0  5.81 0 0  5.82 0 0  5.83 0 0  5.84 0 0  5.85 0 0  5.86 0 0  5.87 0 0  5.88 0 0  5.89 0 0  5.9 0 0  5.91 0 0  5.92 0 0  5.93 0 0  5.94 0 0  5.95 0 0  5.96 0 0  5.97 0 0  5.98 0 0  5.99 0 0  6 0 0  6.01 0 0  6.02 0 0  6.03 0 0  6.04 0 0  6.05 0 0  6.06 0 0  6.07 0 0  6.08 0 0  6.09 0 0  6.1 0 0  6.11 0 0  6.12 0 0  6.13 0 0  6.14 0 0  6.15 0 0  6.16 0 0  6.17 0 0  6.18 0 0  6.19 0 0  6.2 0 0  6.21 0 0  6.22 0 0  6.23 0 0  6.24 0 0  6.25 0 0  6.26 0 0  6.27 0 0  6.28 0 0  6.29 0 0  6.3 0 0  6.31 0 0  6.32 0 0  6.33 0 0  6.34 0 0  6.35 0 0  6.36 0 0  6.37 0 0  6.38 0 0  6.39 0 0  6.4 0 0  6.41 0 0  6.42 0 0  6.43 0 0  6.44 0 0  6.45 0 0  6.46 0 0  6.47 0 0  6.48 0 0  6.49 0 0  6.5 0 0  6.51 0 0  6.52 0 0  6.53 0 0  6.54 0 0  6.55 0 0  6.56 0 0  6.57 0 0  6.58 0 0  6.59 0 0  6.6 0 0  6.61 0 0  6.62 0 0  6.63 0 0  6.64 0 0  6.65 0 0  6.66 0 0  6.67 0 0  6.68 0 0  6.69 0 0  6.7 0 0  6.71 0 0  6.72 0 0  6.73 0 0  6.74 0 0  6.75 0 0  6.76 0 0  6.77 0 0  6.78 0 0  6.79 0 0  6.8 0 0  6.81 0 0  6.82 0 0  6.83 0 0  6.84 0 0  6.85 0 0  6.86 0 0  6.87 0 0  6.88 0 0  6.89 0 0  6.9 0 0  6.91 0 0  6.92 0 0  6.93 0 0  6.94 0 0  6.95 0 0  6.96 0 0  6.97 0 0  6.98 0 0  6.99 0 0  7 0 0  7.01 0 0  7.02 0 0  7.03 0 0  7.04 0 0  7.05 0 0  7.06 0 0  7.07 0 0  7.08 0 0  7.09 0 0  7.1 0 0  7.11 0 0  7.12 0 0  7.13 0 0  7.14 0 0  7.15 0 0  7.16 0 0  7.17 0 0  7.18 0 0  7.19 0 0  7.2 0 0  7.21 0 0  7.22 0 0  7.23 0 0  7.24 0 0  7.25 0 0  7.26 0 0  7.27 0 0  7.28 0 0  7.29 0 0  7.3 0 0  7.31 0 0  7.32 0 0  7.33 0 0  7.34 0 0  7.35 0 0  7.36 0 0  7.37 0 0  7.38 0 0  7.39 0 0  7.4 0 0  7.41 0 0  7.42 0 0  7.43 0 0  7.44 0 0  7.45 0 0  7.46 0 0  7.47 0 0  7.48 0 0  7.49 0 0  7.5 0 0  7.51 0 0  7.52 0 0  7.53 0 0  7.54 0 0  7.55 0 0  7.56 0 0  7.57 0 0  7.58 0 0  7.59 0 0  7.6 0 0  7.61 0 0  7.62 0 0  7.63 0 0  7.64 0 0  7.65 0 0  7.66 0 0  7.67 0 0  7.68 0 0  7.69 0 0  7.7 0 0  7.71 0 0  7.72 0 0  7.73 0 0  7.74 0 0  7.75 0 0  7.76 0 0  7.77 0 0  7.78 0 0  7.79 0 0  7.8 0 0  7.81 0 0  7.82 0 0  7.83 0 0  7.84 0 0  7.85 0 0  7.86 0 0  7.87 0 0  7.88 0 0  7.89 0 0  7.9 0 0  7.91 0 0  7.92 0 0  7.93 0 0  7.94 0 0  7.95 0 0  7.96 0 0  7.97 0 0  7.98 0 0  7.99 0 0  8 0 0  8.01 0 0  8.02 0 0  8.029999999999999 0 0  8.039999999999999 0 0  8.050000000000001 0 0  8.06 0 0  8.07 0 0  8.08 0 0  8.09 0 0  8.1 0 0  8.109999999999999 0 0  8.119999999999999 0 0  8.130000000000001 0 0  8.140000000000001 0 0  8.15 0 0  8.16 0 0  8.17 0 0  8.18 0 0  8.19 0 0  8.199999999999999 0 0  8.210000000000001 0 0  8.220000000000001 0 0  8.23 0 0  8.24 0 0  8.25 0 0  8.26 0 0  8.27 0 0  8.279999999999999 0 0  8.289999999999999 0 0  8.300000000000001 0 0  8.31 0 0  8.32 0 0  8.33 0 0  8.34 0 0  8.35 0 0  8.359999999999999 0 0  8.369999999999999 0 0  8.380000000000001 0 0  8.390000000000001 0 0  8.4 0 0  8.41 0 0  8.42 0 0  8.43 0 0  8.44 0 0  8.449999999999999 0 0  8.460000000000001 0 0  8.470000000000001 0 0  8.48 0 0  8.49 0 0  8.5 0 0  8.51 0 0  8.52 0 0  8.529999999999999 0 0  8.539999999999999 0 0  8.550000000000001 0 0  8.56 0 0  8.57 0 0  8.58 0 0  8.59 0 0  8.6 0 0  8.609999999999999 0 0  8.619999999999999 0
[...]
<PointData  Scalars="f_1080"> 
<DataArray  type="Float64"  Name="f_1080"  format="ascii">9.9999999999999989e-01  1.0000000000000000e+00  9.8186090302626516e-01  9.7008429276909058e-01  9.6063204881161812e-01  9.5284027801999738e-01  9.4665121772494187e-01  9.4113595349629353e-01  9.3618640265262298e-01  9.3179225068392213e-01  9.2791179146676517e-01  9.2429392501552288e-01  9.2097529676961354e-01  9.1784692471248275e-01  9.1489933183757610e-01  9.1217173312453270e-01  9.0963757552371993e-01  9.0718354567381243e-01  9.0479569636258983e-01  9.0251824013712689e-01  9.0032962663460592e-01  8.9821641450758638e-01  8.9617826596775807e-01  8.9426711270618719e-01  8.9246785281051177e-01  8.9068797218818763e-01  8.8900575981254470e-01  8.8740639704635227e-01  8.8583869755751565e-01  8.8429858449477206e-01  8.8282609242409571e-01  8.8140783676011336e-01  8.8001453451281908e-01  8.7864600232482615e-01  8.7733939451903453e-01  8.7608247534226980e-01  8.7479889057247184e-01  8.7357935064740522e-01  8.7238853974639929e-01  8.7124310833524854e-01  8.7011457064070519e-01  8.6900443713311104e-01  8.6790132089946059e-01  8.6678141056494118e-01  8.6563840016063442e-01  8.6451475086228990e-01  8.6339977241360744e-01  8.6229867153334805e-01  8.6122800668179189e-01  8.6018429457081846e-01  8.5917199170885494e-01  8.5820930333185841e-01  8.5728797189106254e-01  8.5636382457328364e-01  8.5547355788765567e-01  8.5459230448779300e-01  8.5374074999693683e-01  8.5291154708040395e-01  8.5207969594428878e-01  8.5124458367252964e-01  8.5043770686476594e-01  8.4965114617245563e-01  8.4887129551132012e-01  8.4809279743622179e-01  8.4733043286159493e-01  8.4657779319492410e-01  8.4580261684451974e-01  8.4504071665925273e-01  8.4428453402379111e-01  8.4352218434337245e-01  8.4275215500168454e-01  8.4199511533101745e-01  8.4124447101910094e-01  8.4049327061201484e-01  8.3975045772064005e-01  8.3900259170022362e-01  8.3824770771866519e-01  8.3750384489216523e-01  8.3675335986121346e-01  8.3602307459930858e-01  8.3530595023516263e-01  8.3458801628207946e-01  8.3387978336355439e-01  8.3316158538254204e-01  8.3245809875656107e-01  8.3176288143789678e-01  8.3108085722623282e-01  8.3041276132884112e-01  8.2977352424699780e-01  8.2914730576139517e-01  8.2854408598379470e-01  8.2795802473390623e-01  8.2737522620014359e-01  8.2680391559985300e-01  8.2622715168418681e-01  8.2566682338485431e-01  8.2511778167691274e-01  8.2457113033315166e-01  8.2402605162943154e-01  8.2349509548286981e-01  8.2297347578490454e-01  8.2244419699046034e-01  8.2192646504322708e-01  8.2140513030562967e-01  8.2089508398385458e-01  8.2039205324453002e-01  8.1988250546669805e-01  8.1936735887125045e-01  8.1886403221447635e-01  8.1836791336622039e-01  8.1786431575071927e-01  8.1737176070205408e-01  8.1687560152301109e-01  8.1638577893312614e-01  8.1589813661060906e-01  8.1540290620671096e-01  8.1491519915637267e-01  8.1443036218319853e-01  8.1393998008924628e-01  8.1344640573466831e-01  8.1296732877362787e-01  8.1249054401617060e-01  8.1201558498449378e-01  8.1153751155364440e-01  8.1105482835753717e-01  8.1056890765375966e-01  8.1007296073829382e-01  8.0957290435414742e-01  8.0906306376274206e-01  8.0856658930394287e-01  8.0807207571353423e-01  8.0759679356885972e-01  8.0713601019903669e-01  8.0667800262250222e-01  8.0622848541863390e-01  8.0576949599916248e-01  8.0531431174997736e-01  8.0485103702021232e-01  8.0438830185681587e-01  8.0392167323892783e-01  8.0345042421895430e-01  8.0298085747666359e-01  8.0251030953895741e-01  8.0204127835721140e-01  8.0158981613442193e-01  8.0115230531903547e-01  8.0071132460239047e-01  8.0028500281817239e-01  7.9986267705756953e-01  7.9945421431052055e-01  7.9905565865737516e-01  7.9865841210909461e-01  7.9825949598257251e-01  7.9786780985415184e-01  7.9748005251929288e-01  7.9708799352825055e-01  7.9669852076004855e-01  7.9630090343058935e-01  7.9590864891413238e-01  7.9551835322108311e-01  7.9512392996823966e-01  7.9472559166158707e-01  7.9433096193664743e-01  7.9393676002605262e-01  7.9353517504722104e-01  7.9313929020857288e-01  7.9273985849189821e-01  7.9234817738245933e-01  7.9196029158726078e-01  7.9157589701615527e-01  7.9119482681938802e-01  7.9082049749464445e-01  7.9044897788388913e-01  7.9007372440580881e-01  7.8970944991280312e-01  7.8935294157987257e-01  7.8899695142789927e-01  7.8864145984818179e-01  7.8829736791688887e-01  7.8796157426517743e-01  7.8762242808633010e-01  7.8729361129970221e-01  7.8696642697309616e-01  7.8664404250418030e-01  7.8632325403127423e-01  7.8599089539363298e-01  7.8566397590855797e-01  7.8533968308318713e-01  7.8501529313608465e-01  7.8469489278736315e-01  7.8437151139334660e-01  7.8404564043658664e-01  7.8372320068451784e-01  7.8340085532793668e-01  7.8306804379720674e-01  7.8273913570273168e-01  7.8241133828942500e-01  7.8208197605752305e-01  7.8175684597945994e-01  7.8142750395410832e-01  7.8110676576280147e-01  7.8079172881447412e-01  7.8047096665205229e-01  7.8014305097066994e-01  7.7981157413706415e-01  7.7947314115898203e-01  7.7912027513402704e-01  7.7877206528660448e-01  7.7842554673435960e-01  7.7807956433123293e-01  7.7773937035735452e-01  7.7739930919780287e-01  7.7706003903514398e-01  7.7672706824060123e-01  7.7639181421477443e-01  7.7606226547551527e-01  7.7573532584518512e-01  7.7541136930628862e-01  7.7509526314058463e-01  7.7478580464631763e-01  7.7448468511772162e-01  7.7419624357306505e-01  7.7391344151988484e-01  7.7363543199025298e-01  7.7335928829837186e-01  7.7307533797852757e-01  7.7279067087919284e-01  7.7250283929550723e-01  7.7220824862960802e-01  7.7190958185005931e-01  7.7161991688560938e-01  7.7133645488726654e-01  7.7104581922105553e-01  7.7076456524737491e-01  7.7049047863622266e-01  7.7021211199760209e-01  7.6993855992218696e-01  7.6966263727483597e-01  7.6938960390492739e-01  7.6911686282459579e-01  7.6884112502733426e-01  7.6856231841776090e-01  7.6828792972547411e-01  7.6801528214627857e-01  7.6773232414829751e-01  7.6745397298968632e-01  7.6717789255891666e-01  7.6690078641474257e-01  7.6662296753847115e-01  7.6635326621756650e-01  7.6608428606403389e-01  7.6582169485974760e-01  7.6556310756850843e-01  7.6530125866539112e-01  7.6503463753028733e-01  7.6476108817693467e-01  7.6447777945834783e-01  7.6417909938697592e-01  7.6388382801635879e-01  7.6358944537773865e-01  7.6329670622656887e-01  7.6301017355769574e-01  7.6272331993935616e-01  7.6243579179791532e-01  7.6215099518895402e-01  7.6186657372551003e-01  7.6157633224194554e-01  7.6128907532902856e-01  7.6100223176970416e-01  7.6071575073310416e-01  7.6043125804527234e-01  7.6015449490742681e-01  7.5988303123051038e-01  7.5960766554590176e-01  7.5933915237090122e-01  7.5907548594758711e-01  7.5880866345252296e-01  7.5855156125491197e-01  7.5830219203877514e-01  7.5804615515319662e-01  7.5779912366785662e-01  7.5755876485304174e-01  7.5731702837252135e-01  7.5707278120054755e-01  7.5683116192895805e-01  7.5659013339657766e-01  7.5634187392761809e-01  7.5609257171212418e-01  7.5583958389203931e-01  7.5558369844380169e-01  7.5532768484751811e-01  7.5506970945653173e-01  7.5481172642646799e-01  7.5456202337271105e-01  7.5431819779992948e-01  7.5406863673564672e-01  7.5383053763350560e-01  7.5360198446020665e-01  7.5338074548508227e-01  7.5316684719162652e-01  7.5296329375342297e-01  7.5276464922576114e-01  7.5257294458887880e-01  7.5238645978130481e-01  7.5219784084409635e-01  7.5200548004912549e-01  7.5180686587248258e-01  7.5159993401877134e-01  7.5138015132861169e-01  7.5115853127068044e-01  7.5093313522345073e-01  7.5070392262290442e-01  7.5047424363633131e-01  7.5024068566529867e-01  7.5000327246569443e-01  7.4976533285613045e-01  7.4952486607103797e-01  7.4927815310350854e-01  7.4903233806061054e-01  7.4878520407135685e-01  7.4853752105345417e-01  7.4829065047867782e-01  7.4804769650475755e-01  7.4780637919947512e-01  7.4756146964845860e-01  7.4732235326790397e-01  7.4708197441620283e-01  7.4684782938722172e-01  7.4661795907194450e-01  7.4638658846876871e-01  7.4615336017845879e-01  7.4592274512142465e-01  7.4569283348710214e-01  7.4545899071269395e-01  7.4522979090983421e-01  7.4499989115785314e-01  7.4477547533645705e-01  7.4455428891761644e-01  7.4433445932744002e-01  7.4411549536386679e-01  7.4389883363665654e-01  7.4367930595894871e-01  7.4346180716992116e-01  7.4324408054157387e-01  7.4302624699182473e-01  7.4280805828711338e-01  7.4259448645118553e-01  7.4238337801466625e-01  7.4217436101243639e-01  7.4196928148060515e-01  7.4176219634282214e-01  7.4156141010130794e-01  7.4136530429786474e-01  7.4117186310865391e-01  7.4098192180285727e-01  7.4079901744771215e-01  7.4062161485000599e-01  7.4044196331968892e-01  7.4026628646320258e-01  7.4009329495008891e-01  7.3991672907261441e-01  7.3974282124366308e-01  7.3956719575842456e-01  7.3939262666709871e-01  7.3921738087128108e-01  7.3903905704339468e-01  7.3885611305649590e-01  7.3867283876174139e-01  7.3848763811354401e-01  7.3829679433905426e-01  7.3810757812939698e-01  7.3791801858569539e-01  7.3772721261527674e-01  7.3753808146769051e-01  7.3734427347035691e-01  7.3714822622693466e-01  7.3694518829630085e-01  7.3673830873697521e-01  7.3652544133562892e-01  7.3630800738975710e-01  7.3608592848946619e-01  7.3586445195467343e-01  7.3564130220328283e-01  7.3541305376800126e-01  7.3519543758956696e-01  7.3498642134667425e-01  7.3477318553177995e-01  7.3457056425778655e-01  7.3437271208636268e-01  7.3418301678519304e-01  7.3399715336599092e-01  7.3381947010576043e-01  7.3364814447965265e-01  7.3347739910379561e-01  7.3330890550823136e-01  7.3313679760744366e-01  7.3296414954433775e-01  7.3278942422889659e-01  7.3260827350807256e-01  7.3241944379732415e-01  7.3222728970265616e-01  7.3202718993800742e-01  7.3182730030762566e-01  7.3162567718768068e-01  7.3142202099447495e-01  7.3121986710153752e-01  7.3101414297552025e-01  7.3081324342522036e-01  7.3061261175321290e-01  7.3041707343445483e-01  7.3022461935672733e-01  7.3003053022435482e-01  7.2983338004548604e-01  7.2963699068598120e-01  7.2943946628645584e-01  7.2924206520652801e-01  7.2904762967463244e-01  7.2885583094854522e-01  7.2866741110890143e-01  7.2848640805600373e-01  7.2830755196304542e-01  7.2813401725245430e-01  7.2796433631786717e-01  7.2778972446637769e-01  7.2761797762299840e-01  7.2744739118706592e-01  7.2727783482641428e-01  7.2711215325907208e-01  7.2694129358449799e-01  7.2677755862847881e-01  7.2661942544536495e-01  7.2646304138285978e-01  7.2630938565590331e-01  7.2616247594744865e-01  7.2602111125472868e-01  7.2588275893874199e-01  7.2574950358541490e-01  7.2561313256210491e-01  7.2548054537388751e-01  7.2535044968496276e-01  7.2522224605250807e-01  7.2509606223611567e-01  7.2497484620573627e-01  7.2485746635537718e-01  7.2474275639118957e-01  7.2463119892967465e-01  7.2452758370268155e-01  7.2443088063926864e-01  7.2433805983353916e-01  7.2425741630662166e-01  7.2418661263433459e-01  7.2412534481062973e-01  7.2407302312523014e-01  7.2402639290260062e-01  7.2398574739382937e-01  7.2394983786170675e-01  7.2391874990804739e-01  7.2389273211232663e-01  7.2387155153764171e-01  7.2385133644026811e-01  7.2383231919458135e-01  7.2380965212866266e-01  7.2377642810297860e-01  7.2372965422858182e-01  7.2365048695302481e-01  7.2353785588219155e-01  7.2337517619024805e-01  7.2311252351648214e-01  7.2274635724925584e-01  7.2221680787282561e-01  7.2147553796046049e-01  7.2037966217206428e-01  7.1891466070296428e-01  7.1665005961015527e-01  7.1358645909419915e-01  7.0867300849758297e-01  6.9769789008367666e-01  5.1863585203283269e-01  3.9795409223834111e-01  3.1231941072126795e-01  2.4719478258937197e-01  1.9446834033048049e-01  1.5257440441446823e-01  1.1959928959126960e-01  9.3955171667401124e-02  7.3858168179995867e-02  5.8311562345898404e-02  4.6373748813487624e-02  3.6909395036448508e-02  2.9794785477476663e-02  2.4323711774130063e-02  1.9976035040012573e-02  1.6749144359339812e-02  1.4247644865079245e-02  1.2452892818657243e-02  1.1110335643242477e-02  1.0122017354136035e-02  9.4455546799659517e-03  9.0097229186449895e-03  8.7545056601378221e-03  8.6286183422059938e-03  8.5921131903179716e-03  8.6286200473195858e-03  8.7545090106421163e-03  9.0097238340471012e-03  9.4455417669568487e-03  1.0122015431615745e-02  1.1110336943667877e-02  1.2452869344868224e-02  1.4247560566530156e-02  1.6748938704619732e-02  1.9975340091169577e-02  2.4322030973668994e-02  2.9789420173978187e-02  3.6906498336750873e-02  4.6357517793337646e-02  5.8187742508262016e-02  7.3933751521588126e-02  9.3921135249191157e-02  1.2013736553400424e-01  1.5368021994607467e-01  1.9601814756779548e-01  2.5209627435911847e-01  3.2202339675622632e-01  4.1035754999697721e-01  5.1117310103742220e-01  6.3918446963975628e-01  6.4689387987647784e-01  6.5189550788588591e-01  6.5565883726240470e-01  6.5820512354816085e-01  6.6033212046449163e-01  6.6205133277562878e-01  6.6356425730838287e-01  6.6489568071107508e-01  6.6608049619774590e-01  6.6712725842663989e-01  6.6808629358009630e-01  6.6893980190839009e-01  6.6973671294098880e-01  6.7048199540002185e-01  6.7116221683209754e-01  6.7178364846281613e-01  6.7239601188623699e-01  6.7295780013523854e-01  6.7347326350830172e-01  6.7395619473533697e-01  6.7440765229925026e-01  6.7482356947226241e-01  6.7520784517513466e-01  6.7557996756186300e-01  6.7594231795443394e-01  6.7628086808528232e-01  6.7659840081583056e-01  6.7690227072371612e-01  6.7718569152520935e-01  6.7746345643143291e-01  6.7771747786479297e-01  6.7794977335183193e-01  6.7817092915246502e-01  6.7838108512973161e-01  6.7857672986134943e-01  6.7875934297549356e-01  6.7893881952402202e-01  6.7910529020781096e-01  6.7926019270996152e-01  6.7940852831660625e-01  6.7955038217243213e-01  6.7968253683214208e-01  6.7980610716645085e-01  6.7992629056723630e-01  6.8004000786898677e-01  6.8014842677920306e-01  6.8025095690668969e-01  6.8034737351124419e-01  6.8043747837154323e-01  6.8052214853668103e-01  6.8060321374886790e-01  6.8067992309820180e-01  6.8075636503674042e-01  6.8082918169283990e-01  6.8090046652932834e-01  6.8097007339042159e-01  6.8103868658442246e-01  6.8110954478401464e-01  6.8117885551403490e-01  6.8124720352715140e-01  6.8131428549747353e-01  6.8137914000353661e-01  6.8144081558108360e-01  6.8149861156238567e-01  6.8155003375560685e-01  6.8159554800877364e-01  6.8163853482496095e-01  6.8167389529112943e-01  6.8170184891792152e-01  6.8172274062723770e-01  6.8173664677516121e-01  6.8174539101668274e-01  6.8174900629652779e-01  6.8174853570455352e-01  6.8174387836049311e-01  6.8173582319832415e-01  6.8172453408051603e-01  6.8171054478910431e-01  6.8169369358039367e-01  6.8167425256183345e-01  6.8165290316383553e-01  6.8162893857537732e-01  6.8160336494148843e-01  6.8157594329130489e-01  6.8154671542114398e-01  6.8151564897603867e-01  6.8148326806126258e-01  6.8144871075032065e-01  6.8141264503606758e-01  6.8137471378795234e-01  6.8133492969547393e-01  6.8129375354223887e-01  6.8125095810619440e-01  6.8120676308447714e-01  6.8116276512767615e-01  6.8111858526973412e-01  6.8107363674244603e-01  6.8102853550400466e-01  6.8098117216976839e-01  6.8093318715952966e-01  6.8088409888083234e-01  6.8083376797365192e-01  6.8078294567052511e-01  6.8073082370583204e-01  6.8067908736402261e-01  6.8062726274923036e-01  6.8057452592219725e-01  6.8052078174018760e-01  6.8046753274463478e-01  6.8041430298983641e-01  6.8036022034849519e-01  6.8030672443264351e-01  6.8025325259011815e-01  6.8020041170697298e-01  6.8014820336372073e-01  6.8009694738261872e-01  6.8004614567735588e-01  6.7999439115169802e-01  6.7994227281798103e-01  6.7988879479384745e-01  6.7983540435134349e-01  6.7978160896611362e-01  6.7972641795630651e-01  6.7966975482507608e-01  6.7961291046723693e-01  6.7955536807803962e-01  6.7949603787532931e-01  6.7943677175247530e-01  6.7937592970951466e-01  6.7931531748492724e-01  6.7925439534227761e-01  6.7919222532474088e-01  6.7912897575736797e-01  6.7906709417876543e-01  6.7900600400160283e-01  6.7894391917188057e-01  6.7888287522679691e-01  6.7882104368141449e-01  6.7875957269888421e-01  6.7869793550473778e-01  6.7863378197580637e-01  6.7856970082051449e-01  6.7850504859177385e-01  6.7843891464981676e-01  6.7837105743456905e-01  6.7830277092051972e-01  6.7823336194420314e-01  6.7816299084279263e-01  6.7809153414936141e-01  6.7802025415348155e-01  6.7794840092094599e-01  6.7787476077051623e-01  6.7780288711316217e-01  6.7773207622527953e-01  6.7765906770818296e-01  6.7758726814060344e-01  6.7751608165292687e-01  6.7744313372022635e-01  6.7737056357272785e-01  6.7729650272562947e-01  6.7722248872317237e-01  6.7714781120512213e-01  6.7707184830670553e-01  6.7699461822868412e-01  6.7691830156258348e-01  6.7684215137505521e-01  6.7676294194784115e-01  6.7668478260428599e-01  6.7660701444384475e-01  6.7652871583541907e-01  6.7644995277003894e-01  6.7637310401392947e-01  6.7629605024291517e-01  6.7622030744886108e-01  6.7614518280597002e-01  6.7606846898475692e-01  6.7598967905597451e-01  6.7590806215279164e-01  6.7582276809804065e-01  6.7573222710242586e-01  6.7564168373789069e-01  6.7555035376622419e-01  6.7545857909450113e-01  6.7536776239265994e-01  6.7527645436808603e-01  6.7518476581935150e-01  6.7509411654308837e-01  6.7500375825382664e-01  6.7491179900711684e-01  6.7482151121484102e-01  6.7473209365627362e-01  6.7464376564925965e-01  6.7455710467090468e-01  6.7447345547217574e-01  6.7439208987797905e-01  6.7430980828363618e-01  6.7422970863449927e-01  6.7415119459984374e-01  6.7407160657530463e-01  6.7399435159176335e-01  6.7391754613805210e-01  6.7384265024768031e-01  6.7376890974556458e-01  6.7369526424215309e-01  6.7362223596451165e-01  6.7354733521177690e-01  6.7347177027727712e-01  6.7339374645542238e-01  6.7331343855140779e-01  6.7322998864553196e-01  6.7314354053400394e-01  6.7305426588977457e-01  6.7296284931668970e-01  6.7287035321931565e-01  6.7277578250109216e-01  6.7267999880966989e-01  6.7258582720733107e-01  6.7249237083904456e-01  6.7239793779177748e-01  6.7230678728645377e-01  6.7221818141758183e-01  6.7213176373722561e-01  6.7204784997619271e-01  6.7196783402206339e-01  6.7189102078831131e-01  6.7181573778909665e-01  6.7174279183695762e-01  6.7166900582326705e-01  6.7159370046172440e-01  6.7151790834334224e-01  6.7144098852881595e-01  6.7136144318789603e-01  6.7127935531560490e-01  6.7119743343194271e-01  6.7111318872142811e-01  6.7102914250261325e-01  6.7094456942158576e-01  6.7085832098793785e-01  6.7077034533570445e-01  6.7068174071509612e-01  6.7059175578230990e-01  6.7049907280072751e-01  6.7040581678938993e-01  6.7031113387764818e-01  6.7021504296034318e-01  6.7011793489994131e-01  6.7002216172842122e-01  6.6992686504372112e-01  6.6982962182173655e-01  6.6973420106873238e-01  6.6963987968366889e-01  6.6954420475341314e-01  6.6945186461832307e-01  6.6936213536106048e-01  6.6927055698488847e-01  6.6918232081197060e-01  6.6909657883581819e-01  6.6901040138100198e-01  6.6892323819817912e-01  6.6883638815912660e-01  6.6874911049566521e-01  6.6865916592487440e-01  6.6856916857596838e-01  6.6847816126845394e-01  6.6838678105144322e-01  6.6829599904973469e-01  6.6820440357424227e-01  6.6811242215088518e-01  6.6802248205608061e-01  6.6793371178817473e-01  6.6784195249529443e-01  6.6775240006246550e-01  6.6766431108056867e-01  6.6757661713438110e-01  6.6748936120016877e-01  6.6740476628806777e-01  6.6732051013866778e-01  6.6723782496358719e-01  6.6715595936419880e-01  6.6707175396082041e-01  6.6698491283363037e-01  6.6689717804549764e-01  6.6680765215125593e-01  6.6671360161764115e-01  6.6661990044295671e-01  6.6652371047455394e-01  6.6642813909886889e-01  6.6633236551139596e-01  6.6623515636807684e-01  6.6613655894826207e-01  6.6603793935367162e-01  6.6593846901526821e-01  6.6583645642201472e-01  6.6573466235622769e-01  6.6563216302668060e-01  6.6552904276869440e-01  6.6542578155564114e-01  6.6532469672080907e-01  6.6522488983745953e-01  6.6512341765751259e-01  6.6502431498005266e-01  6.6492683682917808e-01  6.6482824187919