<?xml version="1.0"?>
<VTKFile type="UnstructuredGrid"  version="0.1"  >
<UnstructuredGrid>
<Piece  NumberOfPoints="5020" NumberOfCells="7838">
<Points>
<DataArray  type="Float64"  NumberOfComponents="3"  format="ascii">0 0.01 0  0 0 0  0.01 0 0  0.02 0 0  0.03 0 0  0.04 0 0  0.05 0 0  0.06 0 0  0.07000000000000001 0 0  0.08 0 0  0.09 0 0  0.1 0 0  0.11 0 0  0.12 0 0  0.13 0 0  0.14 0 0  0.15 0 0  0.16 0 0  0.17 0 0  0.18 0 0  0.19 0 0  0.2 0 0  0.21 0 0  0.22 0 0  0.23 0 0  0.24 0 0  0.25 0 0  0.26 0 0  0.27 0 0  0.28 0 0  0.29 0 0  0.3 0 0  0.31 0 0  0.32 0 0  0.33 0 0  0.34 0 0  0.35 0 0  0.36 0 0  0.37 0 0  0.38 0 0  0.39 0 0  0.4 0 0  0.41 0 0  0.42 0 0  0.43 0 0  0.44 0 0  0.45 0 0  0.46 0 0  0.47 0 0  0.48 0 0  0.49 0 0  0.5 0 0  0.51 0 0  0.52 0 0  0.53 0 0  0.54 0 0  0.55 0 0  0.5600000000000001 0 0  0.57 0 0  0.58 0 0  0.59 0 0  0.6 0 0  0.61 0 0  0.62 0 0  0.63 0 0  0.64 0 0  0.65 0 0  0.66 0 0  0.67 0 0  0.68 0 0  0.6899999999999999 0 0  0.7 0 0  0.71 0 0  0.72 0 0  0.73 0 0  0.74 0 0  0.75 0 0  0.76 0 0  0.77 0 0  0.78 0 0  0.79 0 0  0.8 0 0  0.8100000000000001 0 0  0.82 0 0  0.83 0 0  0.84 0 0  0.85 0 0  0.86 0 0  0.87 0 0  0.88 0 0  0.89 0 0  0.9 0 0  0.91 0 0  0.92 0 0  0.93 0 0  0.9399999999999999 0 0  0.95 0 0  0.96 0 0  0.97 0 0  0.98 0 0  0.99 0 0  1 0 0  1.01 0 0  1.02 0 0  1.03 0 0  1.04 0 0  1.05 0 0  1.06 0 0  1.07 0 0  1.08 0 0  1.09 0 0  1.1 0 0  1.11 0 0  1.12 0 0  1.13 0 0  1.14 0 0  1.15 0 0  1.16 0 0  1.17 0 0  1.18 0 0  1.19 0 0  1.2 0 0  1.21 0 0  1.22 0 0  1.23 0 0  1.24 0 0  1.25 0 0  1.26 0 0  1.27 0 0  1.28 0 0  1.29 0 0  1.3 0 0  1.31 0 0  1.32 0 0  1.33 0 0  1.34 0 0  1.35 0 0  1.36 0 0  1.37 0 0  1.38 0 0  1.39 0 0  1.4 0 0  1.41 0 0  1.42 0 0  1.43 0 0  1.44 0 0  1.45 0 0  1.46 0 0  1.47 0 0  1.48 0 0  1.49 0 0  1.5 0 0  1.51 0 0  1.52 0 0  1.53 0 0  1.54 0 0  1.55 0 0  1.56 0 0  1.57 0 0  1.58 0 0  1.59 0 0  1.6 0 0  1.61 0 0  1.62 0 0  1.63 0 0  1.64 0 0  1.65 0 0  1.66 0 0  1.67 0 0  1.68 0 0  1.69 0 0  1.7 0 0  1.71 0 0  1.72 0 0  1.73 0 0  1.74 0 0  1.75 0 0  1.76 0 0  1.77 0 0  1.78 0 0  1.79 0 0  1.8 0 0  1.81 0 0  1.82 0 0  1.83 0 0  1.84 0 0  1.85 0 0  1.86 0 0  1.87 0 0  1.88 0 0  1.89 0 0  1.9 0 0  1.91 0 0  1.92 0 0  1.93 0 0  1.94 0 0  1.95 0 0  1.96 0 0  1.97 0 0  1.98 0 0  1.99 0 0  2 0 0  2.01 0 0  2.02 0 0  2.03 0 0  2.04 0 0  2.05 0 0  2.06 0 0  2.07 0 0  2.08 0 0  2.09 0 0  2.1 0 0  2.11 0 0  2.12 0 0  2.13 0 0  2.14 0 0  2.15 0 0  2.16 0 0  2.17 0 0  2.18 0 0  2.19 0 0  2.2 0 0  2.21 0 0  2.22 0 0  2.23 0 0  2.24 0 0  2.25 0 0  2.26 0 0  2.27 0 0  2.28 0 0  2.29 0 0  2.3 0 0  2.31 0 0  2.32 0 0  2.33 0 0  2.34 0 0  2.35 0 0  2.36 0 0  2.37 0 0  2.38 0 0  2.39 0 0  2.4 0 0  2.41 0 0  2.42 0 0  2.43 0 0  2.44 0 0  2.45 0 0  2.46 0 0  2.47 0 0  2.48 0 0  2.49 0 0  2.5 0 0  2.51 0 0  2.52 0 0  2.53 0 0  2.54 0 0  2.55 0 0  2.56 0 0  2.57 0 0  2.58 0 0  2.59 0 0  2.6 0 0  2.61 0 0  2.62 0 0  2.63 0 0  2.64 0 0  2.65 0 0  2.66 0 0  2.67 0 0  2.68 0 0  2.69 0 0  2.7 0 0  2.71 0 0  2.72 0 0  2.73 0 0  2.74 0 0  2.75 0 0  2.76 0 0  2.77 0 0  2.78 0 0  2.79 0 0  2.8 0 0  2.81 0 0  2.82 0 0  2.83 0 0  2.84 0 0  2.85 0 0  2.86 0 0  2.87 0 0  2.88 0 0  2.89 0 0  2.9 0 0  2.91 0 0  2.92 0 0  2.93 0 0  2.94 0 0  2.95 0 0  2.96 0 0  2.97 0 0  2.98 0 0  2.99 0 0  3 0 0  3.01 0 0  3.02 0 0  3.03 0 0  3.04 0 0  3.05 0 0  3.06 0 0  3.07 0 0  3.08 0 0  3.09 0 0  3.1 0 0  3.11 0 0  3.12 0 0  3.13 0 0  3.14 0 0  3.15 0 0  3.16 0 0  3.17 0 0  3.18 0 0  3.19 0 0  3.2 0 0  3.21 0 0  3.22 0 0  3.23 0 0  3.24 0 0  3.25 0 0  3.26 0 0  3.27 0 0  3.28 0 0  3.29 0 0  3.3 0 0  3.31 0 0  3.32 0 0  3.33 0 0  3.34 0 0  3.35 0 0  3.36 0 0  3.37 0 0  3.38 0 0  3.39 0 0  3.4 0 0  3.41 0 0  3.42 0 0  3.43 0 0  3.44 0 0  3.45 0 0  3.46 0 0  3.47 0 0  3.48 0 0  3.49 0 0  3.5 0 0  3.51 0 0  3.52 0 0  3.53 0 0  3.54 0 0  3.55 0 0  3.56 0 0  3.57 0 0  3.58 0 0  3.59 0 0  3.6 0 0  3.61 0 0  3.62 0 0  3.63 0 0  3.64 0 0  3.65 0 0  3.66 0 0  3.67 0 0  3.68 0 0  3.69 0 0  3.7 0 0  3.71 0 0  3.72 0 0  3.73 0 0  3.74 0 0  3.75 0 0  3.76 0 0  3.77 0 0  3.78 0 0  3.79 0 0  3.8 0 0  3.81 0 0  3.82 0 0  3.83 0 0  3.84 0 0  3.85 0 0  3.86 0 0  3.87 0 0  3.88 0 0  3.89 0 0  3.9 0 0  3.91 0 0  3.92 0 0  3.93 0 0  3.94 0 0  3.95 0 0  3.96 0 0  3.97 0 0  3.98 0 0  3.99 0 0  4 0 0  4.01 -0.007853658655910169 0  4.02 -0.01570537953906381 0  4.03 -0.02355322535482153 0  4.04 -0.03139525976465671 0  4.05 -0.03922954786392233 0  4.06 -0.04705415665925685 0  4.07 -0.05486715554552286 0  4.08 -0.06266661678215218 0  4.09 -0.07045061596879122 0  4.1 -0.07821723252011516 0  4.11 -0.08596455013970501 0  4.12 -0.09369065729286238 0  4.13 -0.1013936476782562 0  4.14 -0.109071620698271 0  4.15 -0.116722681927953 0  4.16 -0.1243449435824275 0  4.17 -0.1319365249826864 0  4.18 -0.1394955530196144 0  4.19 -0.1470201626161523 0  4.2 -0.1545084971874738 0  4.21 -0.1619587090990747 0  4.22 -0.1693689601226455 0  4.23 -0.1767374218896289 0  4.24 -0.1840622763423391 0  4.25 -0.1913417161825449 0  4.26 -0.1985739453173901 0  4.27 -0.2057571793025541 0  4.28 -0.2128896457825365 0  4.29 -0.2199695849279576 0  4.3 -0.2269952498697733 0  4.31 -0.2339649071302864 0  4.32 -0.2408768370508579 0  4.33 -0.2477293342162038 0  4.34 -0.2545207078751855 0  4.35 -0.2612492823579742 0  4.36 -0.2679133974894985 0  4.37 -0.274511408999066 0  4.38 -0.2810416889260652 0  4.39 -0.2875026260216391 0  4.4 -0.2938926261462368 0  4.41 -0.3002101126629421 0  4.42 -0.3064535268264882 0  4.43 -0.3126213281678524 0  4.44 -0.3187119948743451 0  4.45 -0.3247240241650919 0  4.46 -0.3306559326618259 0  4.47 -0.3365062567548865 0  4.48 -0.3422735529643445 0  4.49 -0.3479563982961573 0  4.5 -0.3535533905932737 0  4.51 -0.3590631488815943 0  4.52 -0.3644843137107056 0  4.53 -0.369815547489305 0  4.54 -0.3750555348152298 0  4.55 -0.3802029828000154 0  4.56 -0.3852566213878944 0  4.57 -0.390215203669165 0  4.58 -0.3950775061878452 0  4.59 -0.3998423292435452 0  4.6 -0.4045084971874736 0  4.61 -0.4090748587125118 0  4.62 -0.413540287137281 0  4.63 -0.4179036806841351 0  4.64 -0.4221639627510074 0  4.65 -0.4263200821770463 0  4.66 -0.4303710135019718 0  4.67 -0.4343157572190955 0  4.68 -0.4381533400219317 0  4.69 -0.4418828150443468 0  4.7 -0.4455032620941839 0  4.71 -0.4490137878803078 0  4.72 -0.4524135262330097 0  4.73 -0.4557016383177228 0  4.74 -0.4588773128419906 0  4.75 -0.4619397662556434 0  4.76 -0.4648882429441256 0  4.77 -0.4677220154149335 0  4.78 -0.4704403844771128 0  4.79 -0.4730426794137726 0  4.8 -0.4755282581475768 0  4.81 -0.477896507399165 0  4.82 -0.4801468428384716 0  4.83 -0.482278709228899 0  4.84 -0.4842915805643155 0  4.85 -0.4861849601988382 0  4.86 -0.4879583809693738 0  4.87 -0.4896114053108829 0  4.88 -0.4911436253643443 0  4.89 -0.4925546630773869 0  4.9 -0.4938441702975689 0  4.91 -0.4950118288582788 0  4.92 -0.4960573506572389 0  4.93 -0.4969804777275898 0  4.94 -0.4977809823015401 0  4.95 -0.498458666866564 0  4.96 -0.4990133642141358 0  4.97 -0.499444937480985 0  4.98 -0.4997532801828658 0  4.99 -0.4999383162408303 0  5 -0.5 0  5.01 -0.4999383162408303 0  5.02 -0.4997532801828658 0  5.03 -0.499444937480985 0  5.04 -0.4990133642141358 0  5.05 -0.498458666866564 0  5.06 -0.4977809823015401 0  5.07 -0.4969804777275898 0  5.08 -0.4960573506572389 0  5.09 -0.4950118288582788 0  5.1 -0.4938441702975689 0  5.11 -0.4925546630773869 0  5.12 -0.4911436253643443 0  5.13 -0.4896114053108829 0  5.14 -0.4879583809693738 0  5.15 -0.4861849601988382 0  5.16 -0.4842915805643155 0  5.17 -0.4822787092288991 0  5.18 -0.4801468428384716 0  5.19 -0.477896507399165 0  5.2 -0.4755282581475768 0  5.21 -0.4730426794137727 0  5.22 -0.4704403844771128 0  5.23 -0.4677220154149336 0  5.24 -0.4648882429441257 0  5.25 -0.4619397662556434 0  5.26 -0.4588773128419906 0  5.27 -0.4557016383177228 0  5.28 -0.4524135262330097 0  5.29 -0.4490137878803078 0  5.3 -0.4455032620941841 0  5.31 -0.4418828150443468 0  5.32 -0.4381533400219317 0  5.33 -0.4343157572190956 0  5.34 -0.4303710135019719 0  5.35 -0.4263200821770463 0  5.36 -0.4221639627510075 0  5.37 -0.4179036806841351 0  5.38 -0.413540287137281 0  5.39 -0.4090748587125119 0  5.4 -0.4045084971874736 0  5.41 -0.3998423292435452 0  5.42 -0.3950775061878453 0  5.43 -0.390215203669165 0  5.44 -0.3852566213878945 0  5.45 -0.3802029828000154 0  5.46 -0.3750555348152299 0  5.47 -0.369815547489305 0  5.48 -0.3644843137107056 0  5.49 -0.3590631488815942 0  5.5 -0.3535533905932738 0  5.51 -0.3479563982961574 0  5.52 -0.3422735529643446 0  5.53 -0.3365062567548867 0  5.54 -0.3306559326618259 0  5.55 -0.3247240241650921 0  5.56 -0.3187119948743451 0  5.57 -0.3126213281678525 0  5.58 -0.3064535268264882 0  5.59 -0.3002101126629422 0  5.6 -0.2938926261462368 0  5.61 -0.2875026260216392 0  5.62 -0.2810416889260652 0  5.63 -0.274511408999066 0  5.64 -0.2679133974894985 0  5.65 -0.2612492823579743 0  5.66 -0.2545207078751855 0  5.67 -0.2477293342162039 0  5.68 -0.2408768370508578 0  5.69 -0.2339649071302865 0  5.7 -0.2269952498697732 0  5.71 -0.2199695849279577 0  5.72 -0.2128896457825364 0  5.73 -0.2057571793025542 0  5.74 -0.1985739453173901 0  5.75 -0.1913417161825449 0  5.76 -0.1840622763423393 0  5.77 -0.1767374218896289 0  5.78 -0.1693689601226457 0  5.79 -0.1619587090990747 0  5.8 -0.154508497187474 0  5.81 -0.1470201626161523 0  5.82 -0.1394955530196146 0  5.83 -0.1319365249826864 0  5.84 -0.1243449435824276 0  5.85 -0.116722681927953 0  5.86 -0.1090716206982712 0  5.87 -0.1013936476782562 0  5.88 -0.09369065729286251 0  5.89 -0.08596455013970501 0  5.9 -0.07821723252011527 0  5.91 -0.07045061596879121 0  5.92 -0.06266661678215227 0  5.93 -0.05486715554552282 0  5.94 -0.04705415665925695 0  5.95 -0.03922954786392231 0  5.96 -0.03139525976465679 0  5.97 -0.02355322535482148 0  5.98 -0.0157053795390639 0  5.99 -0.007853658655910133 0  6 -6.123233995736766e-17 0  6.01 0 0  6.02 0 0  6.03 0 0  6.04 0 0  6.05 0 0  6.06 0 0  6.07 0 0  6.08 0 0  6.09 0 0  6.1 0 0  6.11 0 0  6.12 0 0  6.13 0 0  6.14 0 0  6.15 0 0  6.16 0 0  6.17 0 0  6
[...]
<PointData  Scalars="f_718"> 
<DataArray  type="Float64"  Name="f_718"  format="ascii">1.0000000000000000e+00  1.0000000000000000e+00  9.8186099818574668e-01  9.7008448637108879e-01  9.6063243415772037e-01  9.5284086078394825e-01  9.4665196871868895e-01  9.4113685366959254e-01  9.3618745319150443e-01  9.3179343961195138e-01  9.2791310428587614e-01  9.2429533815984599e-01  9.2097679240219332e-01  9.1784848506545658e-01  9.1490094724371351e-01  9.1217339364028038e-01  9.0963927157520896e-01  9.0718526740835204e-01  9.0479743514939659e-01  9.0251998884041040e-01  9.0033137747027692e-01  8.9821815900106250e-01  8.9618000065801429e-01  8.9426883511815625e-01  8.9246955838884079e-01  8.9068965637900588e-01  8.8900741951856288e-01  8.8740802727758650e-01  8.8584029137589115e-01  8.8430013847952804e-01  8.8282760638750823e-01  8.8140931001630651e-01  8.8001596753718325e-01  8.7864739534237357e-01  8.7734074890330482e-01  8.7608379050578866e-01  8.7480017242555252e-01  8.7358060131323645e-01  8.7238976267307611e-01  8.7124430538959985e-01  8.7011574422771520e-01  8.6900558962639041e-01  8.6790245408943323e-01  8.6678252908069264e-01  8.6563951007758955e-01  8.6451585579165247e-01  8.6340087554511957e-01  8.6229977660487878e-01  8.6122911586066919e-01  8.6018540974868007e-01  8.5917310940806468e-01  8.5821042135510761e-01  8.5728908937994919e-01  8.5636493861440988e-01  8.5547466777122227e-01  8.5459340796749672e-01  8.5374184619390014e-01  8.5291263390518846e-01  8.5208077056009457e-01  8.5124564410345127e-01  8.5043875112652778e-01  8.4965217246356362e-01  8.4887230012180492e-01  8.4809377624505999e-01  8.4733138329826152e-01  8.4657871237314608e-01  8.4580350081941147e-01  8.4504156264399444e-01  8.4428533972644293e-01  8.4352294674492034e-01  8.4275287095459572e-01  8.4199578141183629e-01  8.4124508364110173e-01  8.4049382648514215e-01  8.3975095283184964e-01  8.3900302392508364e-01  8.3824807408812263e-01  8.3750414131235618e-01  8.3675358064988403e-01  8.3602321564992510e-01  8.3530600596789495e-01  8.3458798294656933e-01  8.3387965846694267e-01  8.3316136986124967e-01  8.3245779368765127e-01  8.3176248759459692e-01  8.3108037647883160e-01  8.3041219243511755e-01  8.2977286499243719e-01  8.2914655482752919e-01  8.2854324361521203e-01  8.2795708935682122e-01  8.2737419862091122e-01  8.2680279588905481e-01  8.2622594255114534e-01  8.2566552614312538e-01  8.2511639668585723e-01  8.2456965918896508e-01  8.2402449630460117e-01  8.2349345702954968e-01  8.2297175351903618e-01  8.2244239256583174e-01  8.2192457893590587e-01  8.2140316427090909e-01  8.2089303783493506e-01  8.2038992684159751e-01  8.1988030157138325e-01  8.1936508205536251e-01  8.1886168544834215e-01  8.1836549751410503e-01  8.1786183472570273e-01  8.1736921727786849e-01  8.1687300222268755e-01  8.1638312688922920e-01  8.1589543506214313e-01  8.1540016044196928e-01  8.1491241125263703e-01  8.1442753355000630e-01  8.1393711537898605e-01  8.1344351002246973e-01  8.1296440275704129e-01  8.1248759102897128e-01  8.1201260832362776e-01  8.1153451402191212e-01  8.1105181300510487e-01  8.1056587599209973e-01  8.1006991699903541e-01  8.0956985153096694e-01  8.0906000570343517e-01  8.0856352680622146e-01  8.0806901160208755e-01  8.0759372974371724e-01  8.0713294815326753e-01  8.0667494452486466e-01  8.0622543167957939e-01  8.0576644792274599e-01  8.0531127055411644e-01  8.0484800473801787e-01  8.0438528000103826e-01  8.0391866281907665e-01  8.0344742689732029e-01  8.0297787360719441e-01  8.0250734031782867e-01  8.0203832775902806e-01  8.0158688598246353e-01  8.0114939538517227e-01  8.0070843536278424e-01  8.0028213616061838e-01  7.9985983598346522e-01  7.9945140091621070e-01  7.9905287525087920e-01  7.9865566121977893e-01  7.9825678038544823e-01  7.9786513070642773e-01  7.9747741048982790e-01  7.9708538915164207e-01  7.9669595470035437e-01  7.9629837475901522e-01  7.9590615549964572e-01  7.9551589464290351e-01  7.9512150555734096e-01  7.9472319889488841e-01  7.9432859786917220e-01  7.9393442255385194e-01  7.9353286282206770e-01  7.9313699983537889e-01  7.9273758639177516e-01  7.9234591927222098e-01  7.9195804323438301e-01  7.9157365495636667e-01  7.9119258797003744e-01  7.9081825820316798e-01  7.9044673473354510e-01  7.9007147547522649e-01  7.8970719295951997e-01  7.8935067249196567e-01  7.8899466606754687e-01  7.8863915723227540e-01  7.8829504677312112e-01  7.8795922969612298e-01  7.8762005727368489e-01  7.8729121138398284e-01  7.8696399545361617e-01  7.8664157706856952e-01  7.8632075166390869e-01  7.8598835697504876e-01  7.8566140155268915e-01  7.8533706955557636e-01  7.8501263909981245e-01  7.8469219749718755e-01  7.8436877611108990e-01  7.8404286590572980e-01  7.8372038710028047e-01  7.8339800235553414e-01  7.8306515430890344e-01  7.8273621037884367e-01  7.8240837636961935e-01  7.8207897821678407e-01  7.8175381212264705e-01  7.8142443423140229e-01  7.8110365814926797e-01  7.8078858289917696e-01  7.8046778317408683e-01  7.8013982887651878e-01  7.7980831256753225e-01  7.7946983896658339e-01  7.7911693243420910e-01  7.7876867984497411e-01  7.7842211683617513e-01  7.7807608864443367e-01  7.7773584617258196e-01  7.7739573518925620e-01  7.7705641451822904e-01  7.7672339263527068e-01  7.7638808719530417e-01  7.7605848657739795e-01  7.7573149273900743e-01  7.7540747969834745e-01  7.7509131563883982e-01  7.7478179726075158e-01  7.7448061447261773e-01  7.7419210648857950e-01  7.7390923342174689e-01  7.7363114864127513e-01  7.7335492495808533e-01  7.7307088855101214e-01  7.7278613045534783e-01  7.7249820253435120e-01  7.7220350833512041e-01  7.7190473079440991e-01  7.7161494800710140e-01  7.7133136008899195e-01  7.7104058853614443e-01  7.7075919132312520e-01  7.7048495220673174e-01  7.7020642190023003e-01  7.6993269772655126e-01  7.6965659023307709e-01  7.6938336094878668e-01  7.6911040915807738e-01  7.6883444131837331e-01  7.6855538756096531e-01  7.6828073948461728e-01  7.6800781672040208e-01  7.6772456058390592e-01  7.6744589542410413e-01  7.6716948105395200e-01  7.6689201367701210e-01  7.6661380687514435e-01  7.6634370287545373e-01  7.6607429094560164e-01  7.6581125037962072e-01  7.6555219278534514e-01  7.6528984625372587e-01  7.6502269753322283e-01  7.6474859152618768e-01  7.6446469164838915e-01  7.6416537557350894e-01  7.6386944812663427e-01  7.6357438338843697e-01  7.6328093027288146e-01  7.6299366198460228e-01  7.6270603790230784e-01  7.6241769979428209e-01  7.6213206217925422e-01  7.6184676263898932e-01  7.6155560177559534e-01  7.6126738975101205e-01  7.6097954604773344e-01  7.6069200959623617e-01  7.6040640416579441e-01  7.6012848939482569e-01  7.5985582506129701e-01  7.5957920172651150e-01  7.5930939030193212e-01  7.5904437446491013e-01  7.5877613637145302e-01  7.5851757133969855e-01  7.5826667762034494e-01  7.5800902092799882e-01  7.5776031603204996e-01  7.5751821367136640e-01  7.5727464972871905e-01  7.5702848269494893e-01  7.5678489895850753e-01  7.5654184382732914e-01  7.5629146941108949e-01  7.5604001211241145e-01  7.5578480601608200e-01  7.5552666046574513e-01  7.5526836230942407e-01  7.5500808822219423e-01  7.5474781087436971e-01  7.5449587867313961e-01  7.5424986749633272e-01  7.5399808704412952e-01  7.5375783353853065e-01  7.5352717620407927e-01  7.5330384884765877e-01  7.5308785434602499e-01  7.5288211917487291e-01  7.5268115751434927e-01  7.5248696645564739e-01  7.5229780104241684e-01  7.5210621864215887e-01  7.5191058374459341e-01  7.5170833355673927e-01  7.5149736427383440e-01  7.5127310538027425e-01  7.5104646949693332e-01  7.5081546865124127e-01  7.5057986261229293e-01  7.5034303200994290e-01  7.5010130859425628e-01  7.4985611765454707e-01  7.4961339375095870e-01  7.4937079965249442e-01  7.4912898878391976e-01  7.4888967575234688e-01  7.4865276046324314e-01  7.4841891679425177e-01  7.4819151144045537e-01  7.4796852321972229e-01  7.4774219179378698e-01  7.4752028055720476e-01  7.4730110021477147e-01  7.4707822633720644e-01  7.4686037668934946e-01  7.4664269010841089e-01  7.4643083451444081e-01  7.4622262565831277e-01  7.4601658247104374e-01  7.4581405658250999e-01  7.4560846614563814e-01  7.4540613811784362e-01  7.4520211838610328e-01  7.4499777128472555e-01  7.4479095136213402e-01  7.4458313732179338e-01  7.4437486352758342e-01  7.4416722789184642e-01  7.4396308117033538e-01  7.4375742726298777e-01  7.4355088870145469e-01  7.4334890535201936e-01  7.4314953668726114e-01  7.4294295959233236e-01  7.4274093088360638e-01  7.4254178655765091e-01  7.4234288088308142e-01  7.4214445277217422e-01  7.4195033964780865e-01  7.4175880616207912e-01  7.4156804510434182e-01  7.4138005137906304e-01  7.4118705387007044e-01  7.4099650006008766e-01  7.4080647297236457e-01  7.4062009063368817e-01  7.4044106929134001e-01  7.4025861705816787e-01  7.4008558216031817e-01  7.3992034824408581e-01  7.3975920297705666e-01  7.3960361491979132e-01  7.3945890327447972e-01  7.3932393154351683e-01  7.3919742994754778e-01  7.3908152040356812e-01  7.3896736307018740e-01  7.3886420442641332e-01  7.3877109594285928e-01  7.3869025502928787e-01  7.3862493152155761e-01  7.3856777674319152e-01  7.3853060143857685e-01  7.3851322173375633e-01  7.3851662435508947e-01  7.3854357838143014e-01  7.3859906672074005e-01  7.3868387362203936e-01  7.3879808749853837e-01  7.3894309565548300e-01  7.3911491198425772e-01  7.3932704304058872e-01  7.3958377361425975e-01  7.3989019482067386e-01  7.4024982889266788e-01  7.4066664182382314e-01  7.4114880449540543e-01  7.4169729833799802e-01  7.4231793418482428e-01  7.4303372855214989e-01  7.4386034003242396e-01  7.4479609248419898e-01  7.4585089757444134e-01  7.4708241951102694e-01  7.4848219361976298e-01  7.5001847875408512e-01  7.5179404747050460e-01  7.5382949194028392e-01  7.5623442770682314e-01  7.5341323126419846e-01  7.5092154075510087e-01  7.4848054761072258e-01  7.4621640241080700e-01  7.4404516075887639e-01  7.4199290078529268e-01  7.4004001024821509e-01  7.3805150268159248e-01  7.3615218081000577e-01  7.3431841265475639e-01  7.3250226512352157e-01  7.3070444930353984e-01  7.2896958002989731e-01  7.2727851689354839e-01  7.2560850261698762e-01  7.2398111424766098e-01  7.2232172616098766e-01  7.2069930383963832e-01  7.1909172595026527e-01  7.1747819509851885e-01  7.1587451624651344e-01  7.1426131796220982e-01  7.1268071230858998e-01  7.1109588144505287e-01  7.0954393611090971e-01  7.0800176426451777e-01  7.0646413663885943e-01  7.0492785237565181e-01  7.0341958961351791e-01  7.0190192330077483e-01  7.0039615513391607e-01  6.9887841397348127e-01  6.9735860659612237e-01  6.9583197885147607e-01  6.9432293208209228e-01  6.9280726277532378e-01  6.9129620000429792e-01  6.8978585310791252e-01  6.8827516211373263e-01  6.8678226844718759e-01  6.8528630516607791e-01  6.8381539688639037e-01  6.8234523290301563e-01  6.8086820344157817e-01  6.7941407308257340e-01  6.7796241106363342e-01  6.7651912726845098e-01  6.7509911098061182e-01  6.7367957647409227e-01  6.7227755867445582e-01  6.7087018463947945e-01  6.6946765124217478e-01  6.6806422626646000e-01  6.6665894557809013e-01  6.6525674900173226e-01  6.6387856268254331e-01  6.6249506759092480e-01  6.6113391055773885e-01  6.5977388980667173e-01  6.5842578795896989e-01  6.5710222287752906e-01  6.5577818167707780e-01  6.5446660591476702e-01  6.5316142175727210e-01  6.5187902066881631e-01  6.5059772296691321e-01  6.4933869479129325e-01  6.4810113260719837e-01  6.4686681512823807e-01  6.4565137734763234e-01  6.4445489294823877e-01  6.4326435594880493e-01  6.4210664736271561e-01  6.4095531265109706e-01  6.3983575490307243e-01  6.3872805665430776e-01  6.3765052009099565e-01  6.3660511115529750e-01  6.3556995240228442e-01  6.3456057668463639e-01  6.3356754860325881e-01  6.3261167007079411e-01  6.3168730564878151e-01  6.3077551940785725e-01  6.2988734551984327e-01  6.2902291186692794e-01  6.2818924217538485e-01  6.2736892576120940e-01  6.2657892729551612e-01  6.2580439103228647e-01  6.2506298197750132e-01  6.2435215398935173e-01  6.2365574266658186e-01  6.2298322032351905e-01  6.2232947373660841e-01  6.2170394875548518e-01  6.2109121774931209e-01  6.2050470445385986e-01  6.1993193349524345e-01  6.1938299382514961e-01  6.1885869023171425e-01  6.1836559799429636e-01  6.1789211565716229e-01  6.1745102846424860e-01  6.1703754470096439e-01  6.1664333235850621e-01  6.1627264583700847e-01  6.1592443859849300e-01  6.1559955950779410e-01  6.1528997719645606e-01  6.1501143896029364e-01  6.1476030522977265e-01  6.1453783934942885e-01  6.1433886380079628e-01  6.1416751055806773e-01  6.1402090756221239e-01  6.1389906332011401e-01  6.1380039776555750e-01  6.1371956915222803e-01  6.1365431890317312e-01  6.1362596853062745e-01  6.1361903480579194e-01  6.1363260068882641e-01  6.1368150915916941e-01  6.1374634282218121e-01  6.1382729022595295e-01  6.1394604532018771e-01  6.1407791749057128e-01  6.1422456213958354e-01  6.1440102265297780e-01  6.1459434379723077e-01  6.1480772783441873e-01  6.1503887176172811e-01  6.1528612473209787e-01  6.1555634486905386e-01  6.1583929577925001e-01  6.1613984383922071e-01  6.1645911997536784e-01  6.1679228796088892e-01  6.1715608693557011e-01  6.1752255284005919e-01  6.1789686639968666e-01  6.1830780564329246e-01  6.1872704038045412e-01  6.1916118736302739e-01  6.1961384903088201e-01  6.2008405655258958e-01  6.2056344436134259e-01  6.2105919451886604e-01  6.2158911534601657e-01  6.2212707744796059e-01  6.2268396108759838e-01  6.2325051483135119e-01  6.2383728092950652e-01  6.2442927230353507e-01  6.2503608425336454e-01  6.2565500945031671e-01  6.2628946827074594e-01  6.2695777357934868e-01  6.2763546905905931e-01  6.2833078917036478e-01  6.2906162420919765e-01  6.2980463449123714e-01  6.3056821993669743e-01  6.3136546105518609e-01  6.3216958149378655e-01  6.3299105410461209e-01  6.3383509174263886e-01  6.3470147781018016e-01  6.3557746865093845e-01  6.3647602316754992e-01  6.3739443904019233e-01  6.3833690039597979e-01  6.3930523068510625e-01  6.4030335245795278e-01  6.4131384032214511e-01  6.4235076512630118e-01  6.4342867920792990e-01  6.4452681726176353e-01  6.4565914391507440e-01  6.4683199070266151e-01  6.4804086105011505e-01  6.4931026980466833e-01  6.5064054242212677e-01  6.5201849468529827e-01  6.5346298524676938e-01  6.5498342260166609e-01  6.5657444167979440e-01  6.5825575451472595e-01  6.6006014066329632e-01  6.6196622423181695e-01  6.6405350354939718e-01  6.6627554030899061e-01  6.6866294143974248e-01  6.7131032656065837e-01  6.7422405499581284e-01  6.7744775783121025e-01  6.8107713791838820e-01  6.8524330547746970e-01  6.9018323837193940e-01  6.8994077408406262e-01  6.8957730850170040e-01  6.8920478055139733e-01  6.8885131735718463e-01  6.8851004306808627e-01  6.8819175436402902e-01  6.8789389680706092e-01  6.8761090595365582e-01  6.8734310113898289e-01  6.8709289207451540e-01  6.8685444590161560e-01  6.8663024556248009e-01  6.8641828859940290e-01  6.8621275656986469e-01  6.8601313993354851e-01  6.8582497675099030e-01  6.8564644740198766e-01  6.8547436952763963e-01  6.8530828976593516e-01  6.8514937034887902e-01  6.8499600388200832e-01  6.8484835641919828e-01  6.8470688252085843e-01  6.8456977398907159e-01  6.8443744293671083e-01  6.8431257736672868e-01  6.8419409177631929e-01  6.8407590363521598e-01  6.8396225507680353e-01  6.8385230264578123e-01  6.8374173828819551e-01  6.8363460595515635e-01  6.8352853123695678e-01  6.8342692576368036e-01  6.8332878966531263e-01  6.8323154358201343e-01  6.8313458321525178e-01  6.8304085854597474e-01  6.8294955393146151e-01  6.8285803469626938e-01  6.8276857346585917e-01  6.8268023558643209e-01  6.8259342705733927e-01  6.8250821324646294e-01  6.8242600302354395e-01  6.8234600690437297e-01  6.8226647219637415e-01  6.8218726760176762e-01  6.8211124591737871e-01  6.8203769453168739e-01  6.8196592281752477e-01  6.8189696582833814e-01  6.8182998557083108e-01  6.8176522043433729e-01  6.8170357739036758e-01  6.8164454623959758e-01  6.8158512729174259e-01  6.8152731766375341e-01  6.8146937305429156e-01  6.8141218733986031e-01  6.8135527774110649e-01  6.8129659342556548e-01  6.8123589172117449e-01  6.8117411872061639e-01  6.8111068678481212e-01  6.8104505614478361e-01  6.8097827745104211e-01  6.8090976136695480e-01  6.8083925195902140e-01  6.8076680843454584e-01  6.8069429458259667e-01  6.8062099427514089e-01  6.8054601853739560e-01  6.8047037293249468e-01  6.8039297671608079e-01  6.8031657410413704e-01  6.8024045983375780e-01  6.8016429412660928e-01  6.8008820623928912e-01  6.8001422319822902e-01  6.7994168057336002e-01  6.7986803432236043e-01  6.7979565006428122e-01  6.7972282122491645e-01  6.7965200062734477e-01  6.7958250575609080e-01  6.7951359556960123e-01  6.7944491148704500e-01  6.7937721723018674e-01  6.7930993785213478e-01  6.7924112166578110e-01  6.7917157374870341e-01  6.7910063722116720e-01  6.7902672501628980e-01  6.7894939715000102e-01  6.7887135401513632e-01  6.7879192170696423e-01  6.7870957112255126e-01  6.7862776565351679e-01  6.7854565714141835e-01  6.7846304764507015e-01  6.7838020454771464e-01  6.7829994210778044e-01  6.7822001753113748e-01  6.7814210036956946e-01  6.7806549675497485e-01  6.7798753996877048e-01  6.7790773756875666e-01  6.7782756573033209e-01  6.7774634943923806e-01  6.7766276097230393e-01  6.7757713970866384e-01  6.7749298477987974e-01  6.7740778347447561e-01  6.7732424457519036e-01  6.7724166158660914e-01  6.7715849398612260e-01  6.7707463437175286e-01  6.7699103436382368e-01  6.7690699416887479e-01  6.7682084224346584e-01  6.7673471275034880e-01  6.7664782587396288e-01  6.7655990169566926e-01  6.7647127856545819e-01  6.7638397389249028e-01  6.7629720953900996e-01  6.7620872053548964e-01  6.7612199790883465e-01  6.7603638783673825e-01  6.7594970878318594e-01  6.7586659136242644e-01  6.7578639818619235e-01  6.7570439538411264e-01  6.7562675897797819e-01  6.7555277368522693e-01  6.7547986112523373e-01  6.7540801650437565e-01  6.7533921132774610e-01  6.7527288889519377e-01  6.7520662346277061e-01  6.7514238553605666e-01  6.7507950682917173e-01  6.7501729446875414e-01  6.7495640922570732e-01  6.7489358501726182e-01  6.7482842866748105e-01  6.7476161771198939e-01  6.7469247178693648e-01  6.7461873115185700e-01  6.7454247000763035e-01  6.7446300802257375e-01  6.7437938271166264e-01  6.7429176083855424e-01  6.7420429439369234e-01  6.7411617437649551e-01  6.7402702451324359e-01  6.7393768040124835e-01  6.7384551301343332e-01  6.7375041208599906e-01  6.7365474129830916e-01  6.7355752511827616e-01  6.7345599645977094e-01  6.7335649867661240e-01  6.7325607419509526e-01  6.7315809965871509e-01  6.7306175202364360e-01  6.7296514215294523e-01  6.7286813739611040e-01  6.7277188457747439e-01  6.7267558094485147e-01  6.7257711942864218e-01  6.7247909771882741e-01  6.7238063051494124e-01  6.7228130404023201e-01  6.7218148714676473e-01  6.7208348074285951e-01  6.7198641369088663e-01  6.7188763657740525e-01  6.7179122202797037e-01  6.7169644684216268e-01  6.7160076163128646e-01  6.7150943921991146e-01  6.7142178654762963e-01  6.7133245541847331e-01  6.7124813004391259e-01  6.7116803376626599e-01  6.7108934209024984e-01  6.7101209080817348e-01  6.7093837472195472e-01  6.7086759701048837e-01  6.7079797249087458e-01  6.7073069236713923e-01  6.7066296605472908e-01  6.7059696620153020e-01  6.7053210040624112e-01  6.7046550429438223e-01  6.7039666329964320e-01  6.7032573330716849e-01  6.7025085053516675e-01  6.7017273812239520e-01  6.7009059071405819e-01  6.7000335030085301e-01  6.6991088492911954e-01  6.6981857035102832e-01  6.6972372719847306e-01  6.6962963831698497e-01  6.6953544962277056e-01  6.6943874099748057e-01  6.6933914293190033e-01  6.6923897604518834e-01  6.6913739408333894e-01  6.6903310083218248e-01  6.6892680847036723e-01  6.6882360809695685e-01  6.6872046195873425e-01  6.6862085620432010e-01  6.6852396656260160e-01  6.6842750153191877e-01  6.6833129579898487e-01  6.6823629524169037e-01  6.6814171382421017e-01  6.6804518418775682e-01  6.6794922015198510e-01  6.6785295706029102e-01  6.6775583636484537e-01  6.6765817102109615e-01  6.675620454541785