<?xml version="1.0"?>
<VTKFile type="UnstructuredGrid"  version="0.1"  >
<UnstructuredGrid>
<Piece  NumberOfPoints="4989" NumberOfCells="7775">
<Points>
<DataArray  type="Float64"  NumberOfComponents="3"  format="ascii">0 0.01 0  0 0 0  0.01 0 0  0.02 0 0  0.03 0 0  0.04 0 0  0.05 0 0  0.06 0 0  0.07000000000000001 0 0  0.08 0 0  0.09 0 0  0.1 0 0  0.11 0 0  0.12 0 0  0.13 0 0  0.14 0 0  0.15 0 0  0.16 0 0  0.17 0 0  0.18 0 0  0.19 0 0  0.2 0 0  0.21 0 0  0.22 0 0  0.23 0 0  0.24 0 0  0.25 0 0  0.26 0 0  0.27 0 0  0.28 0 0  0.29 0 0  0.3 0 0  0.31 0 0  0.32 0 0  0.33 0 0  0.34 0 0  0.35 0 0  0.36 0 0  0.37 0 0  0.38 0 0  0.39 0 0  0.4 0 0  0.41 0 0  0.42 0 0  0.43 0 0  0.44 0 0  0.45 0 0  0.46 0 0  0.47 0 0  0.48 0 0  0.49 0 0  0.5 0 0  0.51 0 0  0.52 0 0  0.53 0 0  0.54 0 0  0.55 0 0  0.5600000000000001 0 0  0.57 0 0  0.58 0 0  0.59 0 0  0.6 0 0  0.61 0 0  0.62 0 0  0.63 0 0  0.64 0 0  0.65 0 0  0.66 0 0  0.67 0 0  0.68 0 0  0.6899999999999999 0 0  0.7 0 0  0.71 0 0  0.72 0 0  0.73 0 0  0.74 0 0  0.75 0 0  0.76 0 0  0.77 0 0  0.78 0 0  0.79 0 0  0.8 0 0  0.8100000000000001 0 0  0.82 0 0  0.83 0 0  0.84 0 0  0.85 0 0  0.86 0 0  0.87 0 0  0.88 0 0  0.89 0 0  0.9 0 0  0.91 0 0  0.92 0 0  0.93 0 0  0.9399999999999999 0 0  0.95 0 0  0.96 0 0  0.97 0 0  0.98 0 0  0.99 0 0  1 0 0  1.01 0 0  1.02 0 0  1.03 0 0  1.04 0 0  1.05 0 0  1.06 0 0  1.07 0 0  1.08 0 0  1.09 0 0  1.1 0 0  1.11 0 0  1.12 0 0  1.13 0 0  1.14 0 0  1.15 0 0  1.16 0 0  1.17 0 0  1.18 0 0  1.19 0 0  1.2 0 0  1.21 0 0  1.22 0 0  1.23 0 0  1.24 0 0  1.25 0 0  1.26 0 0  1.27 0 0  1.28 0 0  1.29 0 0  1.3 0 0  1.31 0 0  1.32 0 0  1.33 0 0  1.34 0 0  1.35 0 0  1.36 0 0  1.37 0 0  1.38 0 0  1.39 0 0  1.4 0 0  1.41 0 0  1.42 0 0  1.43 0 0  1.44 0 0  1.45 0 0  1.46 0 0  1.47 0 0  1.48 0 0  1.49 0 0  1.5 0 0  1.51 0 0  1.52 0 0  1.53 0 0  1.54 0 0  1.55 0 0  1.56 0 0  1.57 0 0  1.58 0 0  1.59 0 0  1.6 0 0  1.61 0 0  1.62 0 0  1.63 0 0  1.64 0 0  1.65 0 0  1.66 0 0  1.67 0 0  1.68 0 0  1.69 0 0  1.7 0 0  1.71 0 0  1.72 0 0  1.73 0 0  1.74 0 0  1.75 0 0  1.76 0 0  1.77 0 0  1.78 0 0  1.79 0 0  1.8 0 0  1.81 0 0  1.82 0 0  1.83 0 0  1.84 0 0  1.85 0 0  1.86 0 0  1.87 0 0  1.88 0 0  1.89 0 0  1.9 0 0  1.91 0 0  1.92 0 0  1.93 0 0  1.94 0 0  1.95 0 0  1.96 0 0  1.97 0 0  1.98 0 0  1.99 0 0  2 0 0  2.01 0 0  2.02 0 0  2.03 0 0  2.04 0 0  2.05 0 0  2.06 0 0  2.07 0 0  2.08 0 0  2.09 0 0  2.1 0 0  2.11 0 0  2.12 0 0  2.13 0 0  2.14 0 0  2.15 0 0  2.16 0 0  2.17 0 0  2.18 0 0  2.19 0 0  2.2 0 0  2.21 0 0  2.22 0 0  2.23 0 0  2.24 0 0  2.25 0 0  2.26 0 0  2.27 0 0  2.28 0 0  2.29 0 0  2.3 0 0  2.31 0 0  2.32 0 0  2.33 0 0  2.34 0 0  2.35 0 0  2.36 0 0  2.37 0 0  2.38 0 0  2.39 0 0  2.4 0 0  2.41 0 0  2.42 0 0  2.43 0 0  2.44 0 0  2.45 0 0  2.46 0 0  2.47 0 0  2.48 0 0  2.49 0 0  2.5 0 0  2.51 0 0  2.52 0 0  2.53 0 0  2.54 0 0  2.55 0 0  2.56 0 0  2.57 0 0  2.58 0 0  2.59 0 0  2.6 0 0  2.61 0 0  2.62 0 0  2.63 0 0  2.64 0 0  2.65 0 0  2.66 0 0  2.67 0 0  2.68 0 0  2.69 0 0  2.7 0 0  2.71 0 0  2.72 0 0  2.73 0 0  2.74 0 0  2.75 0 0  2.76 0 0  2.77 0 0  2.78 0 0  2.79 0 0  2.8 0 0  2.81 0 0  2.82 0 0  2.83 0 0  2.84 0 0  2.85 0 0  2.86 0 0  2.87 0 0  2.88 0 0  2.89 0 0  2.9 0 0  2.91 0 0  2.92 0 0  2.93 0 0  2.94 0 0  2.95 0 0  2.96 0 0  2.97 0 0  2.98 0 0  2.99 0 0  3 0 0  3.01 0 0  3.02 0 0  3.03 0 0  3.04 0 0  3.05 0 0  3.06 0 0  3.07 0 0  3.08 0 0  3.09 0 0  3.1 0 0  3.11 0 0  3.12 0 0  3.13 0 0  3.14 0 0  3.15 0 0  3.16 0 0  3.17 0 0  3.18 0 0  3.19 0 0  3.2 0 0  3.21 0 0  3.22 0 0  3.23 0 0  3.24 0 0  3.25 0 0  3.26 0 0  3.27 0 0  3.28 0 0  3.29 0 0  3.3 0 0  3.31 0 0  3.32 0 0  3.33 0 0  3.34 0 0  3.35 0 0  3.36 0 0  3.37 0 0  3.38 0 0  3.39 0 0  3.4 0 0  3.41 0 0  3.42 0 0  3.43 0 0  3.44 0 0  3.45 0 0  3.46 0 0  3.47 0 0  3.48 0 0  3.49 0 0  3.5 0 0  3.51 0 0  3.52 0 0  3.53 0 0  3.54 0 0  3.55 0 0  3.56 0 0  3.57 0 0  3.58 0 0  3.59 0 0  3.6 0 0  3.61 0 0  3.62 0 0  3.63 0 0  3.64 0 0  3.65 0 0  3.66 0 0  3.67 0 0  3.68 0 0  3.69 0 0  3.7 0 0  3.71 0 0  3.72 0 0  3.73 0 0  3.74 0 0  3.75 0 0  3.76 0 0  3.77 0 0  3.78 0 0  3.79 0 0  3.8 0 0  3.81 0 0  3.82 0 0  3.83 0 0  3.84 0 0  3.85 0 0  3.86 0 0  3.87 0 0  3.88 0 0  3.89 0 0  3.9 0 0  3.91 0 0  3.92 0 0  3.93 0 0  3.94 0 0  3.95 0 0  3.96 0 0  3.97 0 0  3.98 0 0  3.99 0 0  4 0 0  4.01 0 0  4.02 0 0  4.03 0 0  4.04 0 0  4.05 0 0  4.06 0 0  4.07 0 0  4.08 0 0  4.09 0 0  4.1 0 0  4.11 0 0  4.12 0 0  4.13 0 0  4.14 0 0  4.15 0 0  4.16 0 0  4.17 0 0  4.18 0 0  4.19 0 0  4.2 0 0  4.21 0 0  4.22 0 0  4.23 0 0  4.24 0 0  4.25 0 0  4.26 0 0  4.27 0 0  4.28 0 0  4.29 0 0  4.3 0 0  4.31 0 0  4.32 0 0  4.33 0 0  4.34 0 0  4.35 0 0  4.36 0 0  4.37 0 0  4.38 0 0  4.39 0 0  4.4 0 0  4.41 0 0  4.42 0 0  4.43 0 0  4.44 0 0  4.45 0 0  4.46 0 0  4.47 0 0  4.48 0 0  4.49 0 0  4.5 0 0  4.51 0 0  4.52 0 0  4.53 0 0  4.54 0 0  4.55 0 0  4.56 0 0  4.57 0 0  4.58 0 0  4.59 0 0  4.6 0 0  4.61 0 0  4.62 0 0  4.63 0 0  4.64 0 0  4.65 0 0  4.66 0 0  4.67 0 0  4.68 0 0  4.69 0 0  4.7 0 0  4.71 0 0  4.72 0 0  4.73 0 0  4.74 0 0  4.75 0 0  4.76 -0.1255810390586241 0  4.77 -0.2506664671286032 0  4.78 -0.3747626291714523 0  4.79 -0.49737977432971 0  4.8 -0.6180339887498927 0  4.81 -0.7362491053693513 0  4.82 -0.8515585831301485 0  4.83 -0.9635073482034314 0  4.84 -1.071653589957992 0  4.85 -1.175570504584943 0  4.86 -1.274847979497382 0  4.87 -1.369094211857378 0  4.88 -1.457937254842822 0  4.89 -1.541026485551576 0  4.9 -1.618033988749897 0  4.91 -1.688655851004031 0  4.92 -1.752613360087727 0  4.93 -1.809654104932038 0  4.94 -1.859552971776504 0  4.95 -1.902113032590308 0  4.96 -1.937166322257262 0  4.97 -1.964574501457377 0  4.98 -1.984229402628956 0  4.99 -1.996053456856543 0  5 -2 0  5.01 -1.996053456856543 0  5.02 -1.984229402628956 0  5.03 -1.964574501457377 0  5.04 -1.937166322257262 0  5.05 -1.902113032590308 0  5.06 -1.859552971776505 0  5.07 -1.809654104932037 0  5.08 -1.752613360087727 0  5.09 -1.688655851004031 0  5.1 -1.618033988749898 0  5.11 -1.541026485551576 0  5.12 -1.457937254842822 0  5.13 -1.369094211857378 0  5.14 -1.274847979497382 0  5.15 -1.175570504584943 0  5.16 -1.071653589957992 0  5.17 -0.9635073482034312 0  5.18 -0.851558583130149 0  5.19 -0.7362491053693513 0  5.2 -0.6180339887498926 0  5.21 -0.4973797743297105 0  5.22 -0.3747626291714526 0  5.23 -0.2506664671286038 0  5.24 -0.1255810390586245 0  5.25 -2.449293598294706e-16 0  5.26 0 0  5.27 0 0  5.28 0 0  5.29 0 0  5.3 0 0  5.31 0 0  5.32 0 0  5.33 0 0  5.34 0 0  5.35 0 0  5.36 0 0  5.37 0 0  5.38 0 0  5.39 0 0  5.4 0 0  5.41 0 0  5.42 0 0  5.43 0 0  5.44 0 0  5.45 0 0  5.46 0 0  5.47 0 0  5.48 0 0  5.49 0 0  5.5 0 0  5.51 0 0  5.52 0 0  5.53 0 0  5.54 0 0  5.55 0 0  5.56 0 0  5.57 0 0  5.58 0 0  5.59 0 0  5.6 0 0  5.61 0 0  5.62 0 0  5.63 0 0  5.64 0 0  5.65 0 0  5.66 0 0  5.67 0 0  5.68 0 0  5.69 0 0  5.7 0 0  5.71 0 0  5.72 0 0  5.73 0 0  5.74 0 0  5.75 0 0  5.76 0 0  5.77 0 0  5.78 0 0  5.79 0 0  5.8 0 0  5.81 0 0  5.82 0 0  5.83 0 0  5.84 0 0  5.85 0 0  5.86 0 0  5.87 0 0  5.88 0 0  5.89 0 0  5.9 0 0  5.91 0 0  5.92 0 0  5.93 0 0  5.94 0 0  5.95 0 0  5.96 0 0  5.97 0 0  5.98 0 0  5.99 0 0  6 0 0  6.01 0 0  6.02 0 0  6.03 0 0  6.04 0 0  6.05 0 0  6.06 0 0  6.07 0 0  6.08 0 0  6.09 0 0  6.1 0 0  6.11 0 0  6.12 0 0  6.13 0 0  6.14 0 0  6.15 0 0  6.16 0 0  6.17 0 0  6.18 0 0  6.19 0 0  6.2 0 0  6.21 0 0  6.22 0 0  6.23 0 0  6.24 0 0  6.25 0 0  6.26 0 0  6.27 0 0  6.28 0 0  6.29 0 0  6.3 0 0  6.31 0 0  6.32 0 0  6.33 0 0  6.34 0 0  6.35 0 0  6.36 0 0  6.37 0 0  6.38 0 0  6.39 0 0  6.4 0 0  6.41 0 0  6.42 0 0  6.43 0 0  6.44 0 0  6.45 0 0  6.46 0 0  6.47 0 0  6.48 0 0  6.49 0 0  6.5 0 0  6.51 0 0  6.52 0 0  6.53 0 0  6.54 0 0  6.55 0 0  6.56 0 0  6.57 0 0  6.58 0 0  6.59 0 0  6.6 0 0  6.61 0 0  6.62 0 0  6.63 0 0  6.64 0 0  6.65 0 0  6.66 0 0  6.67 0 0  6.68 0 0  6.69 0 0  6.7 0 0  6.71 0 0  6.72 0 0  6.73 0 0  6.74 0 0  6.75 0 0  6.76 0 0  6.77 0 0  6.78 0 0  6.79 0 0  6.8 0 0  6.81 0 0  6.82 0 0  6.83 0 0  6.84 0 0  6.85 0 0  6.86 0 0  6.87 0 0  6.88 0 0  6.89 0 0  6.9 0 0  6.91 0 0  6.92 0 0  6.93 0 0  6.94 0 0  6.95 0 0  6.96 0 0  6.97 0 0  6.98 0 0  6.99 0 0  7 0 0  7.01 0 0  7.02 0 0  7.03 0 0  7.04 0 0  7.05 0 0  7.06 0 0  7.07 0 0  7.08 0 0  7.09 0 0  7.1 0 0  7.11 0 0  7.12 0 0  7.13 0 0  7.14 0 0  7.15 0 0  7.16 0 0  7.17 0 0  7.18 0 0  7.19 0 0  7.2 0 0  7.21 0 0  7.22 0 0  7.23 0 0  7.24 0 0  7.25 0 0  7.26 0 0  7.27 0 0  7.28 0 0  7.29 0 0  7.3 0 0  7.31 0 0  7.32 0 0  7.33 0 0  7.34 0 0  7.35 0 0  7.36 0 0  7.37 0 0  7.38 0 0  7.39 0 0  7.4 0 0  7.41 0 0  7.42 0 0  7.43 0 0  7.44 0 0  7.45 0 0  7.46 0 0  7.47 0 0  7.48 0 0  7.49 0 0  7.5 0 0  7.51 0 0  7.52 0 0  7.53 0 0  7.54 0 0  7.55 0 0  7.56 0 0  7.57 0 0  7.58 0 0  7.59 0 0  7.6 0 0  7.61 0 0  7.62 0 0  7.63 0 0  7.64 0 0  7.65 0 0  7.66 0 0  7.67 0 0  7.68 0 0  7.69 0 0  7.7 0 0  7.71 0 0  7.72 0 0  7.73 0 0  7.74 0 0  7.75 0 0  7.76 0 0  7.77 0 0  7.78 0 0  7.79 0 0  7.8 0 0  7.81 0 0  7.82 0 0  7.83 0 0  7.84 0 0  7.85 0 0  7.86 0 0  7.87 0 0  7.88 0 0  7.89 0 0  7.9 0 0  7.91 0 0  7.92 0 0  7.93 0 0  7.94 0 0  7.95 0 0  7.96 0 0  7.97 0 0  7.98 0 0  7.99 0 0  8 0 0  8.01 0 0  8.02 0 0  8.029999999999999 0 0  8.039999999999999 0 0  8.050000000000001 0 0  8.06 0 0  8.07 0 0  8.08 0 0  8.09 0 0  8.1 0 0  8.109999999999999 0 0  8.119999999999999 0 0  8.130000000000001 0 0  8.140000000000001 0 0  8.15 0 0  8.16 0 0  8.17 0 0  8.18 0 0  8.19 0 0  8.199999999999999 0 0  8.210000000000001 0 0  8.220000000000001 0 0  8.23 0 0  8.24 0 0  8.25 0 0  8.26 0 0  8.27 0 0  8.279999999999999 0 0  8.289999999999999 0 0  8.300000000000001 0 0  8.31 0 0  8.32 0 0  8.33 0 0  8.34 0 0  8.35 0 0  8.359999999999999 0 0  8.369999999999999 0 0  8.380000000000001 0 0  8.390000000000001 0 0  8.4 0 0  8.41 0 0  8.42 0 0  8.43 0 0  8.44 0 0  8.449999999999999 0 0  8.460000000000001 0 0  8.470000000000001 0 0  8.48 0 0  8.49 0 0  8.5 0 0  8.51 0 0  8.52 0 0  8.529999999999999 0 0  8.539999999999999 0 0  8.550000000000001 0 0  8.56 0 0  8.57 0 0  8.58 0 0  8.59 0 0  8.6 0 0  8.609999999999999 0 0  8.619999999999999 0
[...]
<PointData  Scalars="f_832"> 
<DataArray  type="Float64"  Name="f_832"  format="ascii">1.0000000000000000e+00  1.0000000000000000e+00  9.7105545635759083e-01  9.4875657896833110e-01  9.2927705971067298e-01  9.1187817746552602e-01  8.9639814655987327e-01  8.8202434864089674e-01  8.6856335156050135e-01  8.5599138008144571e-01  8.4417877884649539e-01  8.3293876623891805e-01  8.2220204284977405e-01  8.1193910598050079e-01  8.0207058713387580e-01  7.9264305337256147e-01  7.8355980807331904e-01  7.7475288553847377e-01  7.6619097119790935e-01  7.5793704974786891e-01  7.4991017684309536e-01  7.4212307120873211e-01  7.3455628021506758e-01  7.2725418454438340e-01  7.2015418218716098e-01  7.1316993557554220e-01  7.0640349000112013e-01  6.9979195915705195e-01  6.9333401225628433e-01  6.8701053767990561e-01  6.8085694256845575e-01  6.7481508297681925e-01  6.6889899486405036e-01  6.6309517187226197e-01  6.5743720193434219e-01  6.5187014275549426e-01  6.4636240680816526e-01  6.4098706757872592e-01  6.3570290968710697e-01  6.3053366917640685e-01  6.2544172850106283e-01  6.2046627071992577e-01  6.1555588220463486e-01  6.1071578195336629e-01  6.0593141580522369e-01  6.0123874914711417e-01  5.9659265312758103e-01  5.9202871045981076e-01  5.8751991807697157e-01  5.8308321356317194e-01  5.7871395062846431e-01  5.7443926549015834e-01  5.7022054348713336e-01  5.6603409774843205e-01  5.6191704885820903e-01  5.5784437055779523e-01  5.5384237925458790e-01  5.4987533524535048e-01  5.4595888600885489e-01  5.4207854596599936e-01  5.3827041880210391e-01  5.3449628163182272e-01  5.3077293401666059e-01  5.2708769160113700e-01  5.2346225862994922e-01  5.1986550154526123e-01  5.1629886944730274e-01  5.1278879516626796e-01  5.0930013145896647e-01  5.0584346521739076e-01  5.0241989201322756e-01  4.9904916953738160e-01  4.9570150341862168e-01  4.9240193656817771e-01  4.8912199099619136e-01  4.8587772849441618e-01  4.8266340616346942e-01  4.7949163562976538e-01  4.7634087805587910e-01  4.7323960505587859e-01  4.7015736748444392e-01  4.6710792109149080e-01  4.6407832077064148e-01  4.6106720853162036e-01  4.5809604729668102e-01  4.5513719299250577e-01  4.5221214742599364e-01  4.4931226217001197e-01  4.4645092437175021e-01  4.4360827545615222e-01  4.4080827326068989e-01  4.3802309831924680e-01  4.3526563914583932e-01  4.3252391032484827e-01  4.2979737343798441e-01  4.2710482352932089e-01  4.2442093219553556e-01  4.2176049507113039e-01  4.1911952087597754e-01  4.1651594101527167e-01  4.1392575689744482e-01  4.1134497003845344e-01  4.0879263194626841e-01  4.0625173672102038e-01  4.0374075260508574e-01  4.0123815969115217e-01  3.9875138933179510e-01  3.9628087315179822e-01  3.9384328254274270e-01  3.9141586899184749e-01  3.8899767113014078e-01  3.8660994595230236e-01  3.8423617709947028e-01  3.8189223700346620e-01  3.7955801901327174e-01  3.7723439576407397e-01  3.7494067503124201e-01  3.7265476990469137e-01  3.7037863414506156e-01  3.6811837090937105e-01  3.6588399616645706e-01  3.6366151986300010e-01  3.6146609961639214e-01  3.5927492115773896e-01  3.5710831053524728e-01  3.5494404558009973e-01  3.5279659311638595e-01  3.5065854696164334e-01  3.4853143952759835e-01  3.4642932307388841e-01  3.4433493877336524e-01  3.4226898515040155e-01  3.4021037527045894e-01  3.3817173715806570e-01  3.3614406322048618e-01  3.3412483095662893e-01  3.3212501675667094e-01  3.3013418940974937e-01  3.2816635397516536e-01  3.2620272057032113e-01  3.2425766179422411e-01  3.2231922781590172e-01  3.2039367324191037e-01  3.1847982074822923e-01  3.1658833503121220e-01  3.1470331868232837e-01  3.1282438878089153e-01  3.1096255155132996e-01  3.0910803317464391e-01  3.0727670553980574e-01  3.0545042290267760e-01  3.0363763697920404e-01  3.0183200566829782e-01  3.0004648518535076e-01  2.9826575307002057e-01  2.9649883196668619e-01  2.9473662603509426e-01  2.9298301639637347e-01  2.9124911903133283e-01  2.8951972222821992e-01  2.8780158268186895e-01  2.8609605867645388e-01  2.8440975094432602e-01  2.8272854162518363e-01  2.8105380829772070e-01  2.7939627997091449e-01  2.7774252981535796e-01  2.7610780877818070e-01  2.7447544013084335e-01  2.7285528817553090e-01  2.7124370792515395e-01  2.6965124325557704e-01  2.6806104598391794e-01  2.6647685369758156e-01  2.6491143720947885e-01  2.6335060385814729e-01  2.6180047757243685e-01  2.6025880881288505e-01  2.5873510563614899e-01  2.5721523704732724e-01  2.5569928935407932e-01  2.5419848743601653e-01  2.5270471393995902e-01  2.5122745555966602e-01  2.4975192261701143e-01  2.4828035039184532e-01  2.4682442165538473e-01  2.4537142383466454e-01  2.4393260679906920e-01  2.4249571361020042e-01  2.4106912597932706e-01  2.3965169043571444e-01  2.3825090874785543e-01  2.3685223440074835e-01  2.3545777239275276e-01  2.3407823989835652e-01  2.3270181022564682e-01  2.3133727757833081e-01  2.2997628206709370e-01  2.2862153629544996e-01  2.2728272574291911e-01  2.2594746206174013e-01  2.2462171612590642e-01  2.2330368130063219e-01  2.2199942005547746e-01  2.2069572443462138e-01  2.1939497531794938e-01  2.1810841362112027e-01  2.1682496080983249e-01  2.1555449719829428e-01  2.1428748964987293e-01  2.1302838316068912e-01  2.1177780755684208e-01  2.1053908956673673e-01  2.0930396203154547e-01  2.0808192264937089e-01  2.0686135735536179e-01  2.0565082286807823e-01  2.0444283222873785e-01  2.0324088740841439e-01  2.0204518316004938e-01  2.0086174940379703e-01  1.9968247214661772e-01  1.9851699237165799e-01  1.9735295534994896e-01  1.9619186794672847e-01  1.9504251633533923e-01  1.9389510427477172e-01  1.9275361488182438e-01  1.9161869218653033e-01  1.9049741224311573e-01  1.8937871169694825e-01  1.8826373701228255e-01  1.8716249692346604e-01  1.8606594316643810e-01  1.8497323404559654e-01  1.8389034667744486e-01  1.8281167256912997e-01  1.8174484121078516e-01  1.8067965233457747e-01  1.7962161247139882e-01  1.7856890722351557e-01  1.7752792262382600e-01  1.7648841257882683e-01  1.7545150880368979e-01  1.7442532058411983e-01  1.7340109667912984e-01  1.7238324535111271e-01  1.7136924781506038e-01  1.7036663223891843e-01  1.6936592632289760e-01  1.6837588160886441e-01  1.6738732754563984e-01  1.6640558109758966e-01  1.6542941805020275e-01  1.6446318260594320e-01  1.6349708759938678e-01  1.6253296888935678e-01  1.6157917478638900e-01  1.6062749184334926e-01  1.5968535608551809e-01  1.5874567924018496e-01  1.5781195565598430e-01  1.5688476922787528e-01  1.5596744293863576e-01  1.5505233139493496e-01  1.5414065063440494e-01  1.5323842192462023e-01  1.5233751653097100e-01  1.5144151918866955e-01  1.5055100692485371e-01  1.4967078274870388e-01  1.4879291628134725e-01  1.4791737925612788e-01  1.4705069497068368e-01  1.4618614569242097e-01  1.4532529879705414e-01  1.4447367000952030e-01  1.4362433231880284e-01  1.4277896074356225e-01  1.4194397111146059e-01  1.4111126294542997e-01  1.4028253956468795e-01  1.3945880426915014e-01  1.3864357149648440e-01  1.3782990928943759e-01  1.3702146066194834e-01  1.3622132955574770e-01  1.3542108249937695e-01  1.3462700158987584e-01  1.3383472285783976e-01  1.3304748836986427e-01  1.3226542999974264e-01  1.3149192158823225e-01  1.3071934924925160e-01  1.2994860811389985e-01  1.2918570270718419e-01  1.2842412702533215e-01  1.2766722260633459e-01  1.2691312348963449e-01  1.2616741021467270e-01  1.2542303756706175e-01  1.2468651075876480e-01  1.2395100750789641e-01  1.2322049019146535e-01  1.2249405275247489e-01  1.2177492661570860e-01  1.2105582762313830e-01  1.2033814170661929e-01  1.1962805084296596e-01  1.1891944018740254e-01  1.1821784354786617e-01  1.1751798203949580e-01  1.1682246610137893e-01  1.1613173401134981e-01  1.1544826761307769e-01  1.1476637059400710e-01  1.1408697980421163e-01  1.1341453776265153e-01  1.1274298601468340e-01  1.1207494048809494e-01  1.1141090210085100e-01  1.1075411976555481e-01  1.1009836567739444e-01  1.0944429162866813e-01  1.0879689595305832e-01  1.0815113096043984e-01  1.0751193583544794e-01  1.0687380878079314e-01  1.0623923392852752e-01  1.0560865864698706e-01  1.0498455593202158e-01  1.0436170761686188e-01  1.0374094750500749e-01  1.0312605722645428e-01  1.0251226530118304e-01  1.0190514763981030e-01  1.0129852152912829e-01  1.0069606985361892e-01  1.0009642969308045e-01  9.9503312399149252e-02  9.8910468913403007e-02  9.8323824893313552e-02  9.7737277531101119e-02  9.7154565647772348e-02  9.6574302842313359e-02  9.6000832314028436e-02  9.5428305016490411e-02  9.4861492028012445e-02  9.4296099119056218e-02  9.3732351196784025e-02  9.3174190912993587e-02  9.2616946009562356e-02  9.2062280453201750e-02  9.1510556674599536e-02  9.0965043946462501e-02  9.0420970819216476e-02  8.9878227122368815e-02  8.9340601962174554e-02  8.8804013327845821e-02  8.8269198869619425e-02  8.7738607576118982e-02  8.7209436526831524e-02  8.6685836770984653e-02  8.6162605903081571e-02  8.5642474562540816e-02  8.5123659192864173e-02  8.4610029977955289e-02  8.4097147910638229e-02  8.3587425283317390e-02  8.3083040938225147e-02  8.2578729930376821e-02  8.2078138731639813e-02  8.1579577509276635e-02  8.1083225616884747e-02  8.0591657120102481e-02  8.0100833852827666e-02  7.9615189125984837e-02  7.9129766075818064e-02  7.8647332912915646e-02  7.8166785781914661e-02  7.7691390883054837e-02  7.7216271824901386e-02  7.6742573267560885e-02  7.6274188527227102e-02  7.5806574650038969e-02  7.5339977370084049e-02  7.4877959485813606e-02  7.4417059285512191e-02  7.3960071949670442e-02  7.3504034279712541e-02  7.3053070434364292e-02  7.2602438195926586e-02  7.2154723149330816e-02  7.1707737978207176e-02  7.1262125767932796e-02  7.0820329127116569e-02  7.0378449620601080e-02  6.9938807457750676e-02  6.9500680964794267e-02  6.9065999422172952e-02  6.8631846363750873e-02  6.8202287694800842e-02  6.7773160437445856e-02  6.7346667477125643e-02  6.6920937500885458e-02  6.6496628574114966e-02  6.6075795587501915e-02  6.5655711938814545e-02  6.5240063273102805e-02  6.4824522130895235e-02  6.4411051358453958e-02  6.3998374855738407e-02  6.3589241977588778e-02  6.3179707080498110e-02  6.2772799336170665e-02  6.2365974815177472e-02  6.1960688399912228e-02  6.1556416951764302e-02  6.1155567192607806e-02  6.0754555631860871e-02  6.0356715929594122e-02  5.9958575572335818e-02  5.9561541322605001e-02  5.9167669457851020e-02  5.8773017019758900e-02  5.8380283084708620e-02  5.7987599378680386e-02  5.7595838242487360e-02  5.7207122076851608e-02  5.6817710243566619e-02  5.6428285628503674e-02  5.6039916351584791e-02  5.5654190413269494e-02  5.5267784247662897e-02  5.4883606874931302e-02  5.4498620599668077e-02  5.4114298953952804e-02  5.3732312453448644e-02  5.3348870606954042e-02  5.2965960150997665e-02  5.2582885907449334e-02  5.2201619044218411e-02  5.1818488504486136e-02  5.1435450919766409e-02  5.1051908588716659e-02  5.0669842664489144e-02  5.0285276687108117e-02  4.9899103067576729e-02  4.9513300869523914e-02  4.9125445567066758e-02  4.8738134612227590e-02  4.8347276284617664e-02  4.7956506667217250e-02  4.7561748056105885e-02  4.7164966721379875e-02  4.6765073883304267e-02  4.6363542949428668e-02  4.5956273253913688e-02  4.5546007400170063e-02  4.5129390669434409e-02  4.4708793060723645e-02  4.4282085995697905e-02  4.3847828618140197e-02  4.3407231495709547e-02  4.2955661215638111e-02  4.2493942235175011e-02  4.2018634940083330e-02  4.1525524660633653e-02  4.1013305198229766e-02  4.0478442313397880e-02  3.9909166851065728e-02  3.9300322515788862e-02  3.8618753807349873e-02  3.7858424989257920e-02  3.6940267646480326e-02  3.5473332235011500e-02  2.4992423773035670e-02  1.8860400127475922e-02  1.4551900236273525e-02  1.1360992292425730e-02  8.8611029110787620e-03  6.9184216523202995e-03  5.4118342244375674e-03  4.2468918978343139e-03  3.3368684352477287e-03  2.6337988386228610e-03  2.0943858297935189e-03  1.6669300451069475e-03  1.3456613318588568e-03  1.0986247572491912e-03  9.0229591187816164e-04  7.5656755956968614e-04  6.4358115471179693e-04  5.6251149297578641e-04  5.0186296725309354e-04  4.5721486635691964e-04  4.2665543684686067e-04  4.0696781662233041e-04  3.9543945606091677e-04  3.8975310696433686e-04  3.8810413585057375e-04  3.8975309977259606e-04  3.9543943660397274e-04  4.0696776972973416e-04  4.2665532726797494e-04  4.5721463935017160e-04  5.0186247606642321e-04  5.6251028078185123e-04  6.4357697425156883e-04  7.5655716265711547e-04  9.0226194441744964e-04  1.0985423215287074e-03  1.3453976054581499e-03  1.6667220486507616e-03  2.0934318996359111e-03  2.6275461048754613e-03  3.3381602985044796e-03  4.2392648821908538e-03  5.4173023635418205e-03  6.9151027762451023e-03  8.7816497689034590e-03  1.1200183346129353e-02  1.4134587065046129e-02  1.7780528376273214e-02  2.2054820521817869e-02  2.7429758133809757e-02  2.7582103327645213e-02  2.7637761469574858e-02  2.7649961046432824e-02  2.7618815815174357e-02  2.7570070450338578e-02  2.7505156176727878e-02  2.7430211065928276e-02  2.7346644721747783e-02  2.7257616901797295e-02  2.7162346744164179e-02  2.7063144892530065e-02  2.6959163591949682e-02  2.6852268795764599e-02  2.6742940044497870e-02  2.6631883148259480e-02  2.6517988341031147e-02  2.6402613526426654e-02  2.6286114419227766e-02  2.6167490389292617e-02  2.6047811037313465e-02  2.5926755274482457e-02  2.5805400322280431e-02  2.5682530419804585e-02  2.5559274998515919e-02  2.5435251134135209e-02  2.5311360379083606e-02  2.5186497941282620e-02  2.5061491750929744e-02  2.4935730481835328e-02  2.4809912094477631e-02  2.4684392722240205e-02  2.4558058434116778e-02  2.4431687962067159e-02  2.4305421013109656e-02  2.4179786355380005e-02  2.4053731096670503e-02  2.3927770789526025e-02  2.3802516614806757e-02  2.3676801356628221e-02  2.3551320913218685e-02  2.3425923461697817e-02  2.3301327394448262e-02  2.3176398103502766e-02  2.3051873608881557e-02  2.2928220718274491e-02  2.2804129648491236e-02  2.2680510681473379e-02  2.2557134332849806e-02  2.2434897344172793e-02  2.2312552844013751e-02  2.2191168418584636e-02  2.2069820290966640e-02  2.1948605826740509e-02  2.1828252721109880e-02  2.1708152989948132e-02  2.1589070902689279e-02  2.1469817914845993e-02  2.1350677768063181e-02  2.1232510877641990e-02  2.1114297224617631e-02  2.0996977441808333e-02  2.0879564345165854e-02  2.0762755352382003e-02  2.0646505742674154e-02  2.0531353172340040e-02  2.0416149991867173e-02  2.0301107890798829e-02  2.0187070391997488e-02  2.0073065393975763e-02  1.9959596751056598e-02  1.9846405307225572e-02  1.9734361467483034e-02  1.9622432011229932e-02  1.9511572795232024e-02  1.9400782457007448e-02  1.9290657645441571e-02  1.9181076077637471e-02  1.9072554314367312e-02  1.8963994254709671e-02  1.8855573433902238e-02  1.8748189808087685e-02  1.8640984399546184e-02  1.8534818705046474e-02  1.8428778483195542e-02  1.8323298917751845e-02  1.8218421335183803e-02  1.8114461339553627e-02  1.8010715580127321e-02  1.7907990877247325e-02  1.7805311548249447e-02  1.7703399590448646e-02  1.7601623200396852e-02  1.7500285177813355e-02  1.7399413896042801e-02  1.7299566181061182e-02  1.7199882003994409e-02  1.7101126498096312e-02  1.7002542160337423e-02  1.6904386070724500e-02  1.6807256792457207e-02  1.6710192981251825e-02  1.6613821640701267e-02  1.6517771816720678e-02  1.6422153080287796e-02  1.6327529333723795e-02  1.6233031669186125e-02  1.6139093022884379e-02  1.6045595837018624e-02  1.5953055017415205e-02  1.5860639132520879e-02  1.5768791021621594e-02  1.5677870959774701e-02  1.5586919362178485e-02  1.5496555076946620e-02  1.5406662862001269e-02  1.5317821803813667e-02  1.5229158905021880e-02  1.5141106932505007e-02  1.5053272839130303e-02  1.4965789105665010e-02  1.4879163948906539e-02  1.4792600891961893e-02  1.4706434371167859e-02  1.4620737822246439e-02  1.4536004616695972e-02  1.4451470736926712e-02  1.4367120523673886e-02  1.4283511930988407e-02  1.4200164382231541e-02  1.4117669724796408e-02  1.4035293987978290e-02  1.3953363405528921e-02  1.3871806864764245e-02  1.3791186308174917e-02  1.3710738365219322e-02  1.3630503828497840e-02  1.3551115923031608e-02  1.3472009854860363e-02  1.3393713032230801e-02  1.3315553146357321e-02  1.3237747833219923e-02  1.3160729499715484e-02  1.3083727065718505e-02  1.3007205718439423e-02  1.2930997924751679e-02  1.2855609232455050e-02  1.2780280681647061e-02  1.2705475566345688e-02  1.2630919915605363e-02  1.2557187705518450e-02  1.2483504574900299e-02  1.2410083215778595e-02  1.2337550150396804e-02  1.2265184337595736e-02  1.2193059749184424e-02  1.2121793220421430e-02  1.2050783608405568e-02  1.1979981316090642e-02  1.1909777875292415e-02  1.1839812309235300e-02  1.1770580936385652e-02  1.1701421813573830e-02  1.1632707847934815e-02  1.1564324473592565e-02  1.1496692217437821e-02  1.1429145395043127e-02  1.1361762856676023e-02  1.1295069997450296e-02  1.1228498065825187e-02  1.1162334263609082e-02  1.1096414930897412e-02  1.1031227865874150e-02  1.0966157205756612e-02  1.0901771552621531e-02  1.0837474516564386e-02  1.0773612348219891e-02  1.0710105818697994e-02  1.0647237089954577e-02  1.0584369353205557e-02  1.0521623825911068e-02  1.0459539492360861e-02  1.0397581721941673e-02  1.0336232450288764e-02  1.0275030010166162e-02  1.0214199895052225e-02  1.0153779083132662e-02  1.0093981904431669e-02  1.0034309981273725e-02  9.9748499612164650e-03  9.9159842153329191e-03  9.8571823835788396e-03  9.7986776868749306e-03  9.7405058058388054e-03  9.6829718937521472e-03  9.6255575954810463e-03  9.5682769565454077e-03  9.5115466399121416e-03  9.4549269210719260e-03  9.3985066565951039e-03  9.3425887248848281e-03  9.2868635345738342e-03  9.2317817016566647e-03  9.1767807024386756e-03  9.1223401901456905e-03  9.0680294340386176e-03  9.0138487165544335e-03  8.9601811008834936e-03  8.9067394190297852e-03  8.8538540090647433e-03  8.8009715682020630e-03  8.7486441947055120e-03  8.6963313242990198e-03  8.6444172833007663e-03  8.5926452369492652e-03  8.5411456642431605e-03  8.4899977699914898e-03  8.4393948481402085e-03  8.3888496961220492e-03  8.3384237946015002e-03  8.2884856025017446e-03  8.2386132766714346e-03  8.1889894952741869e-03  8.1395855101763850e-03  8.0907249226072984e-03  8.0419626956182780e-03  7.9937317642011906e-03  7.9456022194588569e-03  7.8976740518907317e-03  7.8500262669872391e-03  7.8028415012229907e-03  7.7557264867749894e-03  7.7087730687542778e-03  7.6620126272003352e-03  7.6157058252298848e-03  7.5694826539122011e-03  7.5237291229209354e-03  7.4780512300281106e-03  7.4326224832449179e-03  7.3874835473276080e-03  7.3427990678129182e-03  7.2981959294701453e-03  7.2537431118714314e-03  7.2097206639754408e-03  7.1657300919693223e-03  7.1219602766552413e-03  7.0784181775409875e-03  7.0353460479645790e-03  6.9923540011550640e-03  6.9494559026123670e-03  6.9069581430372109e-03  6.8645302551835208e-03  6.8222609382671924e-03  6.7804044652818654e-03  6.7386169125962861e-03  6.6970339062261902e-03  6.6559345166122127e-03  6.6149132263138063e-03  6.5740683193193329e-03  6.5334391811799715e-03  6.4931964697277208e-03  6.4529971825606448e-03  6.4130336012897934e-03  6.3734525466562593e-03  6.3338344323403302e-03  6.2945103406668859e-03  6.2552465870459604e-03  6.2161983792539009e-03  6.1773896126077624e-03  6.1389813032444564e-03  6.1005958419894264e-03  6.0622853136875895e-03  6.0243350530954417e-03  5.9864215595788230e-03  5.9487098571715524e-03  5.9111105446129786e-03  5.8738997035404101e-03  5.8367272346252688e-03  5.7999159222520370e-03  5.7631263066218992e-03  5.7265544913302569e-03  5.6901595764022993e-03  5.6541121103093452e-03  5.6180473386321424e-03  5.5820247453838038e-03  5.5463393099689784e-03  5.5107055834673815e-03  5.4754098165202469e-03  5.4401480603286628e-03  5.4050543490336131e-03  5.3701591094879857e-03  5.3355880086285203e-03  5.3010523747720837e-03  5.2666170986157002e-03  5.2324863407076051e-03  5.1983511445934548e-03  5.1643585583779445e-03  5.1305135485812938e-03  5.0970018102328395e-03  5.0635199936317253e-03  5.0300927855598861e-03  4.9969466361156388e-03  4.9638237931614827e-03  4.930803235880739