<?xml version="1.0"?>
<VTKFile type="UnstructuredGrid"  version="0.1"  >
<UnstructuredGrid>
<Piece  NumberOfPoints="4989" NumberOfCells="7775">
<Points>
<DataArray  type="Float64"  NumberOfComponents="3"  format="ascii">0 0.01 0  0 0 0  0.01 0 0  0.02 0 0  0.03 0 0  0.04 0 0  0.05 0 0  0.06 0 0  0.07000000000000001 0 0  0.08 0 0  0.09 0 0  0.1 0 0  0.11 0 0  0.12 0 0  0.13 0 0  0.14 0 0  0.15 0 0  0.16 0 0  0.17 0 0  0.18 0 0  0.19 0 0  0.2 0 0  0.21 0 0  0.22 0 0  0.23 0 0  0.24 0 0  0.25 0 0  0.26 0 0  0.27 0 0  0.28 0 0  0.29 0 0  0.3 0 0  0.31 0 0  0.32 0 0  0.33 0 0  0.34 0 0  0.35 0 0  0.36 0 0  0.37 0 0  0.38 0 0  0.39 0 0  0.4 0 0  0.41 0 0  0.42 0 0  0.43 0 0  0.44 0 0  0.45 0 0  0.46 0 0  0.47 0 0  0.48 0 0  0.49 0 0  0.5 0 0  0.51 0 0  0.52 0 0  0.53 0 0  0.54 0 0  0.55 0 0  0.5600000000000001 0 0  0.57 0 0  0.58 0 0  0.59 0 0  0.6 0 0  0.61 0 0  0.62 0 0  0.63 0 0  0.64 0 0  0.65 0 0  0.66 0 0  0.67 0 0  0.68 0 0  0.6899999999999999 0 0  0.7 0 0  0.71 0 0  0.72 0 0  0.73 0 0  0.74 0 0  0.75 0 0  0.76 0 0  0.77 0 0  0.78 0 0  0.79 0 0  0.8 0 0  0.8100000000000001 0 0  0.82 0 0  0.83 0 0  0.84 0 0  0.85 0 0  0.86 0 0  0.87 0 0  0.88 0 0  0.89 0 0  0.9 0 0  0.91 0 0  0.92 0 0  0.93 0 0  0.9399999999999999 0 0  0.95 0 0  0.96 0 0  0.97 0 0  0.98 0 0  0.99 0 0  1 0 0  1.01 0 0  1.02 0 0  1.03 0 0  1.04 0 0  1.05 0 0  1.06 0 0  1.07 0 0  1.08 0 0  1.09 0 0  1.1 0 0  1.11 0 0  1.12 0 0  1.13 0 0  1.14 0 0  1.15 0 0  1.16 0 0  1.17 0 0  1.18 0 0  1.19 0 0  1.2 0 0  1.21 0 0  1.22 0 0  1.23 0 0  1.24 0 0  1.25 0 0  1.26 0 0  1.27 0 0  1.28 0 0  1.29 0 0  1.3 0 0  1.31 0 0  1.32 0 0  1.33 0 0  1.34 0 0  1.35 0 0  1.36 0 0  1.37 0 0  1.38 0 0  1.39 0 0  1.4 0 0  1.41 0 0  1.42 0 0  1.43 0 0  1.44 0 0  1.45 0 0  1.46 0 0  1.47 0 0  1.48 0 0  1.49 0 0  1.5 0 0  1.51 0 0  1.52 0 0  1.53 0 0  1.54 0 0  1.55 0 0  1.56 0 0  1.57 0 0  1.58 0 0  1.59 0 0  1.6 0 0  1.61 0 0  1.62 0 0  1.63 0 0  1.64 0 0  1.65 0 0  1.66 0 0  1.67 0 0  1.68 0 0  1.69 0 0  1.7 0 0  1.71 0 0  1.72 0 0  1.73 0 0  1.74 0 0  1.75 0 0  1.76 0 0  1.77 0 0  1.78 0 0  1.79 0 0  1.8 0 0  1.81 0 0  1.82 0 0  1.83 0 0  1.84 0 0  1.85 0 0  1.86 0 0  1.87 0 0  1.88 0 0  1.89 0 0  1.9 0 0  1.91 0 0  1.92 0 0  1.93 0 0  1.94 0 0  1.95 0 0  1.96 0 0  1.97 0 0  1.98 0 0  1.99 0 0  2 0 0  2.01 0 0  2.02 0 0  2.03 0 0  2.04 0 0  2.05 0 0  2.06 0 0  2.07 0 0  2.08 0 0  2.09 0 0  2.1 0 0  2.11 0 0  2.12 0 0  2.13 0 0  2.14 0 0  2.15 0 0  2.16 0 0  2.17 0 0  2.18 0 0  2.19 0 0  2.2 0 0  2.21 0 0  2.22 0 0  2.23 0 0  2.24 0 0  2.25 0 0  2.26 0 0  2.27 0 0  2.28 0 0  2.29 0 0  2.3 0 0  2.31 0 0  2.32 0 0  2.33 0 0  2.34 0 0  2.35 0 0  2.36 0 0  2.37 0 0  2.38 0 0  2.39 0 0  2.4 0 0  2.41 0 0  2.42 0 0  2.43 0 0  2.44 0 0  2.45 0 0  2.46 0 0  2.47 0 0  2.48 0 0  2.49 0 0  2.5 0 0  2.51 0 0  2.52 0 0  2.53 0 0  2.54 0 0  2.55 0 0  2.56 0 0  2.57 0 0  2.58 0 0  2.59 0 0  2.6 0 0  2.61 0 0  2.62 0 0  2.63 0 0  2.64 0 0  2.65 0 0  2.66 0 0  2.67 0 0  2.68 0 0  2.69 0 0  2.7 0 0  2.71 0 0  2.72 0 0  2.73 0 0  2.74 0 0  2.75 0 0  2.76 0 0  2.77 0 0  2.78 0 0  2.79 0 0  2.8 0 0  2.81 0 0  2.82 0 0  2.83 0 0  2.84 0 0  2.85 0 0  2.86 0 0  2.87 0 0  2.88 0 0  2.89 0 0  2.9 0 0  2.91 0 0  2.92 0 0  2.93 0 0  2.94 0 0  2.95 0 0  2.96 0 0  2.97 0 0  2.98 0 0  2.99 0 0  3 0 0  3.01 0 0  3.02 0 0  3.03 0 0  3.04 0 0  3.05 0 0  3.06 0 0  3.07 0 0  3.08 0 0  3.09 0 0  3.1 0 0  3.11 0 0  3.12 0 0  3.13 0 0  3.14 0 0  3.15 0 0  3.16 0 0  3.17 0 0  3.18 0 0  3.19 0 0  3.2 0 0  3.21 0 0  3.22 0 0  3.23 0 0  3.24 0 0  3.25 0 0  3.26 0 0  3.27 0 0  3.28 0 0  3.29 0 0  3.3 0 0  3.31 0 0  3.32 0 0  3.33 0 0  3.34 0 0  3.35 0 0  3.36 0 0  3.37 0 0  3.38 0 0  3.39 0 0  3.4 0 0  3.41 0 0  3.42 0 0  3.43 0 0  3.44 0 0  3.45 0 0  3.46 0 0  3.47 0 0  3.48 0 0  3.49 0 0  3.5 0 0  3.51 0 0  3.52 0 0  3.53 0 0  3.54 0 0  3.55 0 0  3.56 0 0  3.57 0 0  3.58 0 0  3.59 0 0  3.6 0 0  3.61 0 0  3.62 0 0  3.63 0 0  3.64 0 0  3.65 0 0  3.66 0 0  3.67 0 0  3.68 0 0  3.69 0 0  3.7 0 0  3.71 0 0  3.72 0 0  3.73 0 0  3.74 0 0  3.75 0 0  3.76 0 0  3.77 0 0  3.78 0 0  3.79 0 0  3.8 0 0  3.81 0 0  3.82 0 0  3.83 0 0  3.84 0 0  3.85 0 0  3.86 0 0  3.87 0 0  3.88 0 0  3.89 0 0  3.9 0 0  3.91 0 0  3.92 0 0  3.93 0 0  3.94 0 0  3.95 0 0  3.96 0 0  3.97 0 0  3.98 0 0  3.99 0 0  4 0 0  4.01 0 0  4.02 0 0  4.03 0 0  4.04 0 0  4.05 0 0  4.06 0 0  4.07 0 0  4.08 0 0  4.09 0 0  4.1 0 0  4.11 0 0  4.12 0 0  4.13 0 0  4.14 0 0  4.15 0 0  4.16 0 0  4.17 0 0  4.18 0 0  4.19 0 0  4.2 0 0  4.21 0 0  4.22 0 0  4.23 0 0  4.24 0 0  4.25 0 0  4.26 0 0  4.27 0 0  4.28 0 0  4.29 0 0  4.3 0 0  4.31 0 0  4.32 0 0  4.33 0 0  4.34 0 0  4.35 0 0  4.36 0 0  4.37 0 0  4.38 0 0  4.39 0 0  4.4 0 0  4.41 0 0  4.42 0 0  4.43 0 0  4.44 0 0  4.45 0 0  4.46 0 0  4.47 0 0  4.48 0 0  4.49 0 0  4.5 0 0  4.51 0 0  4.52 0 0  4.53 0 0  4.54 0 0  4.55 0 0  4.56 0 0  4.57 0 0  4.58 0 0  4.59 0 0  4.6 0 0  4.61 0 0  4.62 0 0  4.63 0 0  4.64 0 0  4.65 0 0  4.66 0 0  4.67 0 0  4.68 0 0  4.69 0 0  4.7 0 0  4.71 0 0  4.72 0 0  4.73 0 0  4.74 0 0  4.75 0 0  4.76 -0.1255810390586241 0  4.77 -0.2506664671286032 0  4.78 -0.3747626291714523 0  4.79 -0.49737977432971 0  4.8 -0.6180339887498927 0  4.81 -0.7362491053693513 0  4.82 -0.8515585831301485 0  4.83 -0.9635073482034314 0  4.84 -1.071653589957992 0  4.85 -1.175570504584943 0  4.86 -1.274847979497382 0  4.87 -1.369094211857378 0  4.88 -1.457937254842822 0  4.89 -1.541026485551576 0  4.9 -1.618033988749897 0  4.91 -1.688655851004031 0  4.92 -1.752613360087727 0  4.93 -1.809654104932038 0  4.94 -1.859552971776504 0  4.95 -1.902113032590308 0  4.96 -1.937166322257262 0  4.97 -1.964574501457377 0  4.98 -1.984229402628956 0  4.99 -1.996053456856543 0  5 -2 0  5.01 -1.996053456856543 0  5.02 -1.984229402628956 0  5.03 -1.964574501457377 0  5.04 -1.937166322257262 0  5.05 -1.902113032590308 0  5.06 -1.859552971776505 0  5.07 -1.809654104932037 0  5.08 -1.752613360087727 0  5.09 -1.688655851004031 0  5.1 -1.618033988749898 0  5.11 -1.541026485551576 0  5.12 -1.457937254842822 0  5.13 -1.369094211857378 0  5.14 -1.274847979497382 0  5.15 -1.175570504584943 0  5.16 -1.071653589957992 0  5.17 -0.9635073482034312 0  5.18 -0.851558583130149 0  5.19 -0.7362491053693513 0  5.2 -0.6180339887498926 0  5.21 -0.4973797743297105 0  5.22 -0.3747626291714526 0  5.23 -0.2506664671286038 0  5.24 -0.1255810390586245 0  5.25 -2.449293598294706e-16 0  5.26 0 0  5.27 0 0  5.28 0 0  5.29 0 0  5.3 0 0  5.31 0 0  5.32 0 0  5.33 0 0  5.34 0 0  5.35 0 0  5.36 0 0  5.37 0 0  5.38 0 0  5.39 0 0  5.4 0 0  5.41 0 0  5.42 0 0  5.43 0 0  5.44 0 0  5.45 0 0  5.46 0 0  5.47 0 0  5.48 0 0  5.49 0 0  5.5 0 0  5.51 0 0  5.52 0 0  5.53 0 0  5.54 0 0  5.55 0 0  5.56 0 0  5.57 0 0  5.58 0 0  5.59 0 0  5.6 0 0  5.61 0 0  5.62 0 0  5.63 0 0  5.64 0 0  5.65 0 0  5.66 0 0  5.67 0 0  5.68 0 0  5.69 0 0  5.7 0 0  5.71 0 0  5.72 0 0  5.73 0 0  5.74 0 0  5.75 0 0  5.76 0 0  5.77 0 0  5.78 0 0  5.79 0 0  5.8 0 0  5.81 0 0  5.82 0 0  5.83 0 0  5.84 0 0  5.85 0 0  5.86 0 0  5.87 0 0  5.88 0 0  5.89 0 0  5.9 0 0  5.91 0 0  5.92 0 0  5.93 0 0  5.94 0 0  5.95 0 0  5.96 0 0  5.97 0 0  5.98 0 0  5.99 0 0  6 0 0  6.01 0 0  6.02 0 0  6.03 0 0  6.04 0 0  6.05 0 0  6.06 0 0  6.07 0 0  6.08 0 0  6.09 0 0  6.1 0 0  6.11 0 0  6.12 0 0  6.13 0 0  6.14 0 0  6.15 0 0  6.16 0 0  6.17 0 0  6.18 0 0  6.19 0 0  6.2 0 0  6.21 0 0  6.22 0 0  6.23 0 0  6.24 0 0  6.25 0 0  6.26 0 0  6.27 0 0  6.28 0 0  6.29 0 0  6.3 0 0  6.31 0 0  6.32 0 0  6.33 0 0  6.34 0 0  6.35 0 0  6.36 0 0  6.37 0 0  6.38 0 0  6.39 0 0  6.4 0 0  6.41 0 0  6.42 0 0  6.43 0 0  6.44 0 0  6.45 0 0  6.46 0 0  6.47 0 0  6.48 0 0  6.49 0 0  6.5 0 0  6.51 0 0  6.52 0 0  6.53 0 0  6.54 0 0  6.55 0 0  6.56 0 0  6.57 0 0  6.58 0 0  6.59 0 0  6.6 0 0  6.61 0 0  6.62 0 0  6.63 0 0  6.64 0 0  6.65 0 0  6.66 0 0  6.67 0 0  6.68 0 0  6.69 0 0  6.7 0 0  6.71 0 0  6.72 0 0  6.73 0 0  6.74 0 0  6.75 0 0  6.76 0 0  6.77 0 0  6.78 0 0  6.79 0 0  6.8 0 0  6.81 0 0  6.82 0 0  6.83 0 0  6.84 0 0  6.85 0 0  6.86 0 0  6.87 0 0  6.88 0 0  6.89 0 0  6.9 0 0  6.91 0 0  6.92 0 0  6.93 0 0  6.94 0 0  6.95 0 0  6.96 0 0  6.97 0 0  6.98 0 0  6.99 0 0  7 0 0  7.01 0 0  7.02 0 0  7.03 0 0  7.04 0 0  7.05 0 0  7.06 0 0  7.07 0 0  7.08 0 0  7.09 0 0  7.1 0 0  7.11 0 0  7.12 0 0  7.13 0 0  7.14 0 0  7.15 0 0  7.16 0 0  7.17 0 0  7.18 0 0  7.19 0 0  7.2 0 0  7.21 0 0  7.22 0 0  7.23 0 0  7.24 0 0  7.25 0 0  7.26 0 0  7.27 0 0  7.28 0 0  7.29 0 0  7.3 0 0  7.31 0 0  7.32 0 0  7.33 0 0  7.34 0 0  7.35 0 0  7.36 0 0  7.37 0 0  7.38 0 0  7.39 0 0  7.4 0 0  7.41 0 0  7.42 0 0  7.43 0 0  7.44 0 0  7.45 0 0  7.46 0 0  7.47 0 0  7.48 0 0  7.49 0 0  7.5 0 0  7.51 0 0  7.52 0 0  7.53 0 0  7.54 0 0  7.55 0 0  7.56 0 0  7.57 0 0  7.58 0 0  7.59 0 0  7.6 0 0  7.61 0 0  7.62 0 0  7.63 0 0  7.64 0 0  7.65 0 0  7.66 0 0  7.67 0 0  7.68 0 0  7.69 0 0  7.7 0 0  7.71 0 0  7.72 0 0  7.73 0 0  7.74 0 0  7.75 0 0  7.76 0 0  7.77 0 0  7.78 0 0  7.79 0 0  7.8 0 0  7.81 0 0  7.82 0 0  7.83 0 0  7.84 0 0  7.85 0 0  7.86 0 0  7.87 0 0  7.88 0 0  7.89 0 0  7.9 0 0  7.91 0 0  7.92 0 0  7.93 0 0  7.94 0 0  7.95 0 0  7.96 0 0  7.97 0 0  7.98 0 0  7.99 0 0  8 0 0  8.01 0 0  8.02 0 0  8.029999999999999 0 0  8.039999999999999 0 0  8.050000000000001 0 0  8.06 0 0  8.07 0 0  8.08 0 0  8.09 0 0  8.1 0 0  8.109999999999999 0 0  8.119999999999999 0 0  8.130000000000001 0 0  8.140000000000001 0 0  8.15 0 0  8.16 0 0  8.17 0 0  8.18 0 0  8.19 0 0  8.199999999999999 0 0  8.210000000000001 0 0  8.220000000000001 0 0  8.23 0 0  8.24 0 0  8.25 0 0  8.26 0 0  8.27 0 0  8.279999999999999 0 0  8.289999999999999 0 0  8.300000000000001 0 0  8.31 0 0  8.32 0 0  8.33 0 0  8.34 0 0  8.35 0 0  8.359999999999999 0 0  8.369999999999999 0 0  8.380000000000001 0 0  8.390000000000001 0 0  8.4 0 0  8.41 0 0  8.42 0 0  8.43 0 0  8.44 0 0  8.449999999999999 0 0  8.460000000000001 0 0  8.470000000000001 0 0  8.48 0 0  8.49 0 0  8.5 0 0  8.51 0 0  8.52 0 0  8.529999999999999 0 0  8.539999999999999 0 0  8.550000000000001 0 0  8.56 0 0  8.57 0 0  8.58 0 0  8.59 0 0  8.6 0 0  8.609999999999999 0 0  8.619999999999999 0
[...]
<PointData  Scalars="f_798-1"> 
<DataArray  type="Float64"  Name="f_798-1"  format="ascii">-7.9156293641369999e+01  -7.9026553293704950e+01  -7.9072734557121038e+01  -7.8983279936520006e+01  -7.8911269199078163e+01  -7.8829263212427676e+01  -7.8747909228353080e+01  -7.8665415073344917e+01  -7.8586624199795423e+01  -7.8504061368090305e+01  -7.8424921885716671e+01  -7.8343605820469008e+01  -7.8265211234161740e+01  -7.8184286788533640e+01  -7.8104876668614168e+01  -7.8024863035453976e+01  -7.7944725651059017e+01  -7.7864746269254468e+01  -7.7784916816881207e+01  -7.7704791773574627e+01  -7.7624671701970087e+01  -7.7544650579948183e+01  -7.7464566238073274e+01  -7.7384590230817636e+01  -7.7304522551536934e+01  -7.7224515533907791e+01  -7.7144495023169554e+01  -7.7064485548977274e+01  -7.6984211788643847e+01  -7.6904101938367134e+01  -7.6823941487145689e+01  -7.6744055341350446e+01  -7.6664067002691539e+01  -7.6584270463514031e+01  -7.6504027941599531e+01  -7.6424088011166006e+01  -7.6343931877102165e+01  -7.6263871322732541e+01  -7.6183892760734125e+01  -7.6103938701722143e+01  -7.6023933832367277e+01  -7.5943909578830059e+01  -7.5863876788162486e+01  -7.5783953161963296e+01  -7.5703877392981965e+01  -7.5623784797447399e+01  -7.5543801077347851e+01  -7.5464165231766998e+01  -7.5383887514553976e+01  -7.5303965580686082e+01  -7.5224223399501938e+01  -7.5143952070855804e+01  -7.5063988687608116e+01  -7.4983966866328075e+01  -7.4904167085464394e+01  -7.4823883901749639e+01  -7.4744118586599782e+01  -7.4663880862727765e+01  -7.4583971385087551e+01  -7.4504032540533501e+01  -7.4424141534087255e+01  -7.4344205795885387e+01  -7.4264219581055869e+01  -7.4184061532937079e+01  -7.4104232688969631e+01  -7.4024288170339602e+01  -7.3943998952984870e+01  -7.3864223259209069e+01  -7.3784317144968341e+01  -7.3704248220510493e+01  -7.3624531155238799e+01  -7.3544094146425806e+01  -7.3464235282756562e+01  -7.3384430262540519e+01  -7.3304171510722753e+01  -7.3224282616878924e+01  -7.3144315549987823e+01  -7.3064294916738788e+01  -7.2984300468952810e+01  -7.2904294133870906e+01  -7.2824248862326556e+01  -7.2744223454706400e+01  -7.2664120107418199e+01  -7.2584200229309573e+01  -7.2504015049580815e+01  -7.2424214272686839e+01  -7.2344143778795328e+01  -7.2264266573222017e+01  -7.2184170383894923e+01  -7.2104223327333656e+01  -7.2024217448568123e+01  -7.1944282842231431e+01  -7.1864136041707098e+01  -7.1784041009411553e+01  -7.1704187946420006e+01  -7.1623990099244267e+01  -7.1544120324853367e+01  -7.1464136162259024e+01  -7.1384195280490118e+01  -7.1303929495764407e+01  -7.1224163148545458e+01  -7.1144108413466526e+01  -7.1064099424884063e+01  -7.0984215864905309e+01  -7.0904067800788553e+01  -7.0824141331972484e+01  -7.0744036438114506e+01  -7.0664173761882310e+01  -7.0583881158179011e+01  -7.0504100581514948e+01  -7.0423910091573148e+01  -7.0343966174137392e+01  -7.0264258175950118e+01  -7.0183992533899939e+01  -7.0103975817607093e+01  -7.0024059392301965e+01  -6.9944140206766676e+01  -6.9863991452719901e+01  -6.9783950402191365e+01  -6.9704009464921540e+01  -6.9624046081998003e+01  -6.9543934036244423e+01  -6.9464000048547092e+01  -6.9384093702930471e+01  -6.9304077887223016e+01  -6.9224106497795958e+01  -6.9144015169848728e+01  -6.9064028158055692e+01  -6.8984039536301040e+01  -6.8904127937875828e+01  -6.8824017330944358e+01  -6.8744071977963273e+01  -6.8664124967281168e+01  -6.8584014122861973e+01  -6.8504138614677416e+01  -6.8424210418396697e+01  -6.8344096605510444e+01  -6.8264125422755811e+01  -6.8184103912529892e+01  -6.8104239067985077e+01  -6.8024090472302234e+01  -6.7944276134979901e+01  -6.7864107495611947e+01  -6.7784072201951261e+01  -6.7704448417692348e+01  -6.7624255973131795e+01  -6.7544151333665752e+01  -6.7464218329033997e+01  -6.7384299557263262e+01  -6.7304206035271335e+01  -6.7224221046970911e+01  -6.7144276844873488e+01  -6.7064240197677577e+01  -6.6984407164161340e+01  -6.6904286811579865e+01  -6.6824242102647887e+01  -6.6744350494048447e+01  -6.6664516065439443e+01  -6.6584356715973556e+01  -6.6504333378200457e+01  -6.6424321386498974e+01  -6.6344384462661409e+01  -6.6264328544855147e+01  -6.6184415341245028e+01  -6.6104221387821781e+01  -6.6024438575404119e+01  -6.5944492072088579e+01  -6.5864436805026173e+01  -6.5784468278760997e+01  -6.5704322783156030e+01  -6.5624592234510828e+01  -6.5544331852524664e+01  -6.5464408408349342e+01  -6.5384449993268788e+01  -6.5304467779501650e+01  -6.5224309928472877e+01  -6.5144501289828312e+01  -6.5064308942470646e+01  -6.4984566584795147e+01  -6.4904335141815977e+01  -6.4824411504304294e+01  -6.4744417182383145e+01  -6.4664464770729793e+01  -6.4584306575976640e+01  -6.4504405764507567e+01  -6.4424214391131500e+01  -6.4344642043345075e+01  -6.4264411522548158e+01  -6.4184186004133963e+01  -6.4104395164509555e+01  -6.4024380493889922e+01  -6.3944453017121312e+01  -6.3864393074766170e+01  -6.3784338953273405e+01  -6.3704277718499739e+01  -6.3624511828915715e+01  -6.3544248565619398e+01  -6.3464468702003941e+01  -6.3384312695666445e+01  -6.3304410968323658e+01  -6.3224227579304348e+01  -6.3144411624724690e+01  -6.3064303046068645e+01  -6.2984409971121622e+01  -6.2904401208372086e+01  -6.2824339914760316e+01  -6.2744369550560108e+01  -6.2664234700667265e+01  -6.2584391065468544e+01  -6.2504318832408480e+01  -6.2424322165720838e+01  -6.2344344763803434e+01  -6.2264343724574644e+01  -6.2184312954526817e+01  -6.2104235987215610e+01  -6.2024350435124866e+01  -6.1944330271663993e+01  -6.1864199153374614e+01  -6.1784276153897942e+01  -6.1704335935352631e+01  -6.1624266652089027e+01  -6.1544327527570580e+01  -6.1464316313117337e+01  -6.1384307628349156e+01  -6.1304311248883181e+01  -6.1224284944122346e+01  -6.1144221079402207e+01  -6.1064393906917140e+01  -6.0984205950961737e+01  -6.0904335007897586e+01  -6.0824427810149686e+01  -6.0744329395794651e+01  -6.0664234269175225e+01  -6.0584288307629528e+01  -6.0504256414528818e+01  -6.0424501703167664e+01  -6.0344317719873750e+01  -6.0264134344375606e+01  -6.0184267958377411e+01  -6.0104517650821144e+01  -6.0024153500482285e+01  -5.9944449593413069e+01  -5.9864270158762494e+01  -5.9784376761944905e+01  -5.9704058852692661e+01  -5.9624512671599035e+01  -5.9544370461265714e+01  -5.9464330525977253e+01  -5.9384280596794738e+01  -5.9304385470060033e+01  -5.9224414305798085e+01  -5.9144245957846948e+01  -5.9064348151529593e+01  -5.8984465646746656e+01  -5.8904259254328927e+01  -5.8824377515406837e+01  -5.8744364118787360e+01  -5.8664359263107571e+01  -5.8584346163540793e+01  -5.8504382602285474e+01  -5.8424409633374587e+01  -5.8344419669722498e+01  -5.8264283171126067e+01  -5.8184542578467720e+01  -5.8104415085636042e+01  -5.8024342255471375e+01  -5.7944325271900212e+01  -5.7864675775404493e+01  -5.7784370228196408e+01  -5.7704388112375192e+01  -5.7624314880554969e+01  -5.7544460473130805e+01  -5.7464334982769842e+01  -5.7384556927380565e+01  -5.7304475635770615e+01  -5.7224371492533045e+01  -5.7144299492542885e+01  -5.7064529455857098e+01  -5.6984365318644045e+01  -5.6904356372336302e+01  -5.6824377220202678e+01  -5.6744392145294562e+01  -5.6664322643072182e+01  -5.6584427394955419e+01  -5.6504357476097240e+01  -5.6424319594682387e+01  -5.6344558564194543e+01  -5.6264104108620586e+01  -5.6184379842557398e+01  -5.6104410242895312e+01  -5.6024254237435613e+01  -5.5944422892653243e+01  -5.5864277727561692e+01  -5.5784184650826845e+01  -5.5704297423181480e+01  -5.5624408511505308e+01  -5.5544257034772073e+01  -5.5464274777293582e+01  -5.5384302159665623e+01  -5.5304324615656284e+01  -5.5224210258624801e+01  -5.5144274304107157e+01  -5.5064199446251799e+01  -5.4984318873348549e+01  -5.4904159532464995e+01  -5.4824141452641037e+01  -5.4744386700430773e+01  -5.4664165817725312e+01  -5.4584245620534894e+01  -5.4504251396850513e+01  -5.4424148654810061e+01  -5.4344209877695256e+01  -5.4264153310861289e+01  -5.4184178775642728e+01  -5.4104252385383354e+01  -5.4024105837205532e+01  -5.3944155804763774e+01  -5.3864157710363273e+01  -5.3784221487682501e+01  -5.3704100535619013e+01  -5.3624142791642207e+01  -5.3544218363697169e+01  -5.3464202044698936e+01  -5.3384104526304483e+01  -5.3304097357218424e+01  -5.3224165835336422e+01  -5.3144084522071694e+01  -5.3064283880807395e+01  -5.2984119876805458e+01  -5.2904095231168846e+01  -5.2824289221885429e+01  -5.2744152185991155e+01  -5.2664162040667527e+01  -5.2584316432482460e+01  -5.2504170083674147e+01  -5.2424204153670935e+01  -5.2344329527523406e+01  -5.2264214275336684e+01  -5.2184310074651393e+01  -5.2104330113739323e+01  -5.2024307723155303e+01  -5.1944405171942392e+01  -5.1864438103426473e+01  -5.1784374051955062e+01  -5.1704443024592749e+01  -5.1624576377987779e+01  -5.1544529195740751e+01  -5.1464552658243129e+01  -5.1384674312638424e+01  -5.1304758028417041e+01  -5.1224367667997434e+01  -5.1145037519935450e+01  -5.1064816655557308e+01  -5.0984914411691967e+01  -5.0905184677368275e+01  -5.0824779387088405e+01  -5.0745250646271941e+01  -5.0665097417695982e+01  -5.0585223343809332e+01  -5.0505466595192061e+01  -5.0425406757192874e+01  -5.0345641466608342e+01  -5.0265766532189794e+01  -5.0185813880871351e+01  -5.0105948935825637e+01  -5.0026087832419115e+01  -4.9946193183923810e+01  -4.9866312795530391e+01  -4.9786516642626289e+01  -4.9706589410181692e+01  -4.9626868185733400e+01  -4.9547020728121311e+01  -4.9467122984559218e+01  -4.9387395656000947e+01  -4.9307575808253382e+01  -4.9227830877261681e+01  -4.9147967784629500e+01  -4.9068269168499981e+01  -4.8988514128068729e+01  -4.8908737057158163e+01  -4.8829007025437193e+01  -4.8749259532011244e+01  -4.8669564366931020e+01  -4.8589952053862163e+01  -4.8510086016553387e+01  -4.8430543398066732e+01  -4.8350859603596803e+01  -4.8271238421778030e+01  -4.8191638342318313e+01  -4.8111985986804200e+01  -4.8032429641713357e+01  -4.7952827233245742e+01  -4.7873265122954933e+01  -4.7793771994999354e+01  -4.7714269831602806e+01  -4.7634757116632571e+01  -4.7555104510296232e+01  -4.7475886121120496e+01  -4.7396386620393905e+01  -4.7316892785877137e+01  -4.7237615947768660e+01  -4.7158137091980947e+01  -4.7078785956616606e+01  -4.6999569527292380e+01  -4.6920210080717844e+01  -4.6841049295244630e+01  -4.6761765705262825e+01  -4.6682558267466852e+01  -4.6603424918496920e+01  -4.6524082282352239e+01  -4.6445105096076659e+01  -4.6366107909940830e+01  -4.6286919345356580e+01  -4.6207966678776550e+01  -4.6129120990858155e+01  -4.6049822697400820e+01  -4.5971275457224806e+01  -4.5892309739358225e+01  -4.5813401113199156e+01  -4.5734757875228340e+01  -4.5656027208959017e+01  -4.5577205461457488e+01  -4.5498718469882057e+01  -4.5419938388533417e+01  -4.5341563739318921e+01  -4.5262953993161247e+01  -4.5184521908794828e+01  -4.5106259749780911e+01  -4.5027757558201884e+01  -4.4949637776880309e+01  -4.4871241664312727e+01  -4.4793337888488949e+01  -4.4715071372733135e+01  -4.4637310298932704e+01  -4.4559288764832708e+01  -4.4481408555580934e+01  -4.4404012505088581e+01  -4.4326184250181484e+01  -4.4248939843239640e+01  -4.4171293254114218e+01  -4.4094622161720231e+01  -4.4017025822746120e+01  -4.3940355718282916e+01  -4.3863025773812076e+01  -4.3786745146358903e+01  -4.3709606251449920e+01  -4.3633183042588037e+01  -4.3556947634004644e+01  -4.3480550813628525e+01  -4.3405639347931483e+01  -4.3329213999347800e+01  -4.3254624442572499e+01  -4.3178803322885038e+01  -4.3103943104673085e+01  -4.3029438665431599e+01  -4.2957347536441894e+01  -4.2882322533363514e+01  -4.2812048836097858e+01  -4.2738686156719886e+01  -4.2669242766651067e+01  -4.2599842602012941e+01  -4.2531517920758247e+01  -4.2473388599729418e+01  -4.2404118888154990e+01  -4.2341843863283188e+01  -4.2279487602227753e+01  -4.2220078077834501e+01  -4.2178210934389746e+01  -4.2118075661703607e+01  -4.2117925701454944e+01  -4.2051792516177322e+01  -4.2181503157156456e+01  -4.2067816393996608e+01  -4.2540695035258793e+01  -4.2144425584692002e+01  -5.0619301161425071e+01  -3.1370972615323147e+01  -3.7784209702209978e+01  -3.9187752015134834e+01  -3.9338538087959378e+01  -3.9401027359303129e+01  -3.9382509139830823e+01  -3.9375490957636508e+01  -3.9372731919562348e+01  -3.9371813847608273e+01  -3.9371484021099612e+01  -3.9370797389552401e+01  -3.9370012354923652e+01  -3.9369498693720637e+01  -3.9369658769416041e+01  -3.9370744478109629e+01  -3.9371555618044674e+01  -3.9372804846760758e+01  -3.9373017350238925e+01  -3.9373490361750555e+01  -3.9374262459150025e+01  -3.9377946522384406e+01  -3.9365773769997688e+01  -3.9381644112749363e+01  -3.9373708062429451e+01  -3.9187221346467986e+01  -3.9863893831676421e+01  -3.9385649204741242e+01  -3.9338062595341796e+01  -3.9358477128070120e+01  -3.9390767736452794e+01  -3.9370380371464847e+01  -3.9372388423232508e+01  -3.9379218789744840e+01  -3.9368612374708142e+01  -3.9373761254573530e+01  -3.9370923919662786e+01  -3.9370884256385487e+01  -3.9369541121309908e+01  -3.9369486182422648e+01  -3.9370032602711142e+01  -3.9370879480372473e+01  -3.9371635083772823e+01  -3.9372149282487847e+01  -3.9371299596756685e+01  -3.9368197565066069e+01  -3.9359954018477602e+01  -3.9341739914168620e+01  -3.9390581565982743e+01  -3.9624053706628025e+01  -4.0546386071604715e+01  -4.5612968724600350e+01  -3.2777032765168144e+01  -3.6555245096663739e+01  -3.5973991305548140e+01  -3.6333974944928713e+01  -3.6793533849154279e+01  -3.6587129646863026e+01  -3.6638812179939741e+01  -3.6600394343644219e+01  -3.6559933638880800e+01  -3.6495853053394377e+01  -3.6453638644178000e+01  -3.6384268538101800e+01  -3.6329099640438088e+01  -3.6260846750546634e+01  -3.6195517026484545e+01  -3.6123376842315821e+01  -3.6055908797714942e+01  -3.5984227949511727e+01  -3.5910789723638423e+01  -3.5840756532633151e+01  -3.5766433958655242e+01  -3.5693401313651748e+01  -3.5617833320767538e+01  -3.5544042430945282e+01  -3.5468247005460590e+01  -3.5394117425984788e+01  -3.5317623172411672e+01  -3.5242928609523659e+01  -3.5166360030069491e+01  -3.5090336156200500e+01  -3.5014305013959962e+01  -3.4937158236562972e+01  -3.4860899547236265e+01  -3.4783520146458059e+01  -3.4706733989295678e+01  -3.4629209257283627e+01  -3.4551999421618049e+01  -3.4474611360928400e+01  -3.4396840259513574e+01  -3.4319656968701267e+01  -3.4241568967437793e+01  -3.4163951834480812e+01  -3.4086041204507218e+01  -3.4008085964047972e+01  -3.3930117806553092e+01  -3.3851917189211534e+01  -3.3773864915053885e+01  -3.3695729658349485e+01  -3.3617115484266137e+01  -3.3538738288393262e+01  -3.3460572417042357e+01  -3.3381861676208629e+01  -3.3303217636272443e+01  -3.3224796606011360e+01  -3.3146178756869027e+01  -3.3067378718772702e+01  -3.2988649985530216e+01  -3.2909728314342964e+01  -3.2831259474596642e+01  -3.2752086120958481e+01  -3.2673527292596532e+01  -3.2594281306225476e+01  -3.2515307317072491e+01  -3.2436414460595138e+01  -3.2357253080639097e+01  -3.2278187313637815e+01  -3.2198843673907376e+01  -3.2120153114736048e+01  -3.2040696875470225e+01  -3.1961513744845789e+01  -3.1882214770062667e+01  -3.1802998242000410e+01  -3.1723609940481207e+01  -3.1644530373535748e+01  -3.1564941331399350e+01  -3.1485581207236905e+01  -3.1406253237801092e+01  -3.1326744134271223e+01  -3.1247332740766947e+01  -3.1167944856012152e+01  -3.1088380024288529e+01  -3.1009031965010873e+01  -3.0929200969249827e+01  -3.0849826246426836e+01  -3.0770251055422822e+01  -3.0690632963064122e+01  -3.0611070243249639e+01  -3.0531387454947449e+01  -3.0451826283347092e+01  -3.0372103374207732e+01  -3.0292525219165704e+01  -3.0212788170953282e+01  -3.0133095658131346e+01  -3.0053433342749113e+01  -2.9973634687547754e+01  -2.9893937661423458e+01  -2.9814214944701639e+01  -2.9734420243167076e+01  -2.9654699952430651e+01  -2.9574858719398044e+01  -2.9495098577655988e+01  -2.9415280535510885e+01  -2.9335471456998661e+01  -2.9255768785465804e+01  -2.9175712576400691e+01  -2.9096014860268287e+01  -2.9016142572699845e+01  -2.8936295984650538e+01  -2.8856462246916159e+01  -2.8776571796395721e+01  -2.8696621420164462e+01  -2.8616902512039836e+01  -2.8536912731485053e+01  -2.8457028539404398e+01  -2.8377095107153298e+01  -2.8297241937203026e+01  -2.8217354684889123e+01  -2.8137278921545903e+01  -2.8057489393253618e+01  -2.7977590720687235e+01  -2.7897599794119479e+01  -2.7817669231930090e+01  -2.7737732897181953e+01  -2.7657797176056683e+01  -2.7577845839243913e+01  -2.7497965744604837e+01  -2.7417735399050109e+01  -2.7338060123759597e+01  -2.7258065036389052e+01  -2.7178076969782222e+01  -2.7098099564258934e+01  -2.7018142229206326e+01  -2.6938151034149261e+01  -2.6858205376299626e+01  -2.6778233352260564e+01  -2.6698134248596872e+01  -2.6618294051703955e+01  -2.6538265150092084e+01  -2.6458360573109935e+01  -2.6378301593284878e+01  -2.6298330978608547e+01  -2.6218336911241135e+01  -2.6138404385351919e+01  -2.6058305001169828e+01  -2.5978411634688147e+01  -2.5898406709850601e+01  -2.5818358818810911e+01  -2.5738418567329287e+01  -2.5658384809134933e+01  -2.5578436016824003e+01  -2.5498413434626769e+01  -2.5418392226845718e+01  -2.5338412027517791e+01  -2.5258397199904405e+01  -2.5178705885148307e+01  -2.5098123143318318e+01  -2.5018510620440100e+01  -2.4938213873638787e+01  -2.4858481109207879e+01  -2.4778401167660117e+01  -2.4698461566689755e+01  -2.4618354163074951e+01  -2.4538471157044071e+01  -2.4458357226971966e+01  -2.4378464188031089e+01  -2.4298383904666952e+01  -2.4218571587136910e+01  -2.4138278303793086e+01  -2.4058405995696457e+01  -2.3978439937495875e+01  -2.3898261988474147e+01  -2.3818431358741698e+01  -2.3738431948070644e+01  -2.3658355100736905e+01  -2.3578388704509344e+01  -2.3498389880719138e+01  -2.3418407962910258e+01  -2.3338400981075747e+01  -2.3258371164397325e+01  -2.3178548788294513e+01  -2.3098228478432929e+01  -2.3018450004739243e+01  -2.2938219472910614e+01  -2.2858390701636566e+01  -2.2778370777153370e+01  -2.2698614499369810e+01  -2.2618131622189075e+01  -2.2538417731908741e+01  -2.2458406337674447e+01  -2.2378383612574304e+01  -2.2298374662803493e+01  -2.2218367388014816e+01  -2.2138623562052182e+01  -2.2058124448188401e+01  -2.1978443300750623e+01  -2.1898241703087830e+01  -2.1818482791900870e+01  -2.1738367702767672e+01  -2.1658359544857976e+01  -2.1578387022294827e+01  -2.1498406840688389e+01  -2.1418390468952452e+01  -2.1338341653707808e+01  -2.1258514234715083e+01  -2.1178296123017009e+01  -2.1098626454732479e+01  -2.1018284366174818e+01  -2.0938503419488296e+01  -2.0858314545991774e+01  -2.0778460614365045e+01  -2.0698326028877545e+01  -2.0618421242791751e+01  -2.0538452311573749e+01  -2.0458418543118352e+01  -2.0378429889170178e+01  -2.0298292998405099e+01  -2.0218576732550684e+01  -2.0138359335022948e+01  -2.0058720384167547e+01  -1.9978163996520305e+01  -1.9898494250171463e+01  -1.9818428173708547e+01  -1.9738523331797424e+01  -1.9658392540920850e+01  -1.9578474717228396e+01  -1.9498479964934294e+01  -1.9418471005958715e+01  -1.9338492355416065e+01  -1.9258462245703516e+01  -1.9178494853497156e+01  -1.9098496549253760e+01  -1.9018507825884022e+01  -1.8938520169012563e+01  -1.8858554361305561e+01  -1.8778307763572677e+01  -1.8698710954777265e+01  -1.8618504459622052e+01  -1.8538543928030364e+01  -1.8458511320143760e+01  -1.8378531506287924e+01  -1.8298549626639819e+01  -1.8218600551426988e+01  -1.8138484821935631e+01  -1.8058586401658701e+01  -1.7978556926140193e+01  -1.7898633444550796e+01  -1.7818485959607848e+01  -1.7738623372264438e+01  -1.7658516925148191e+01  -1.7578636570121553e+01  -1.7498628102475877e+01  -1.7418456433419827e+01  -1.7338717704741427e+01  -1.7258591520313484e+01  -1.7178697824726601e+01  -1.7098525658478913e+01  -1.7018620046499112e+01  -1.6938692086982034e+01  -1.6858420451621793e+01  -1.6778826323205493e+01  -1.6698636297258069e+01  -1.6618496102716293e+01  -1.6538816581602848e+01  -1.6458556442732796e+01  -1.6378854339722547e+01  -1.6298635103933805e+01  -1.6218665567609136e+01  -1.6138572402695594e+01  -1.6058778852454903e+01  -1.597867