<?xml version="1.0"?>
<VTKFile type="UnstructuredGrid"  version="0.1"  >
<UnstructuredGrid>
<Piece  NumberOfPoints="5023" NumberOfCells="7844">
<Points>
<DataArray  type="Float64"  NumberOfComponents="3"  format="ascii">0 0.01 0  0 0 0  0.01 0 0  0.02 0 0  0.03 0 0  0.04 0 0  0.05 0 0  0.06 0 0  0.07000000000000001 0 0  0.08 0 0  0.09 0 0  0.1 0 0  0.11 0 0  0.12 0 0  0.13 0 0  0.14 0 0  0.15 0 0  0.16 0 0  0.17 0 0  0.18 0 0  0.19 0 0  0.2 0 0  0.21 0 0  0.22 0 0  0.23 0 0  0.24 0 0  0.25 0 0  0.26 0 0  0.27 0 0  0.28 0 0  0.29 0 0  0.3 0 0  0.31 0 0  0.32 0 0  0.33 0 0  0.34 0 0  0.35 0 0  0.36 0 0  0.37 0 0  0.38 0 0  0.39 0 0  0.4 0 0  0.41 0 0  0.42 0 0  0.43 0 0  0.44 0 0  0.45 0 0  0.46 0 0  0.47 0 0  0.48 0 0  0.49 0 0  0.5 0 0  0.51 0 0  0.52 0 0  0.53 0 0  0.54 0 0  0.55 0 0  0.5600000000000001 0 0  0.57 0 0  0.58 0 0  0.59 0 0  0.6 0 0  0.61 0 0  0.62 0 0  0.63 0 0  0.64 0 0  0.65 0 0  0.66 0 0  0.67 0 0  0.68 0 0  0.6899999999999999 0 0  0.7 0 0  0.71 0 0  0.72 0 0  0.73 0 0  0.74 0 0  0.75 0 0  0.76 0 0  0.77 0 0  0.78 0 0  0.79 0 0  0.8 0 0  0.8100000000000001 0 0  0.82 0 0  0.83 0 0  0.84 0 0  0.85 0 0  0.86 0 0  0.87 0 0  0.88 0 0  0.89 0 0  0.9 0 0  0.91 0 0  0.92 0 0  0.93 0 0  0.9399999999999999 0 0  0.95 0 0  0.96 0 0  0.97 0 0  0.98 0 0  0.99 0 0  1 0 0  1.01 0 0  1.02 0 0  1.03 0 0  1.04 0 0  1.05 0 0  1.06 0 0  1.07 0 0  1.08 0 0  1.09 0 0  1.1 0 0  1.11 0 0  1.12 0 0  1.13 0 0  1.14 0 0  1.15 0 0  1.16 0 0  1.17 0 0  1.18 0 0  1.19 0 0  1.2 0 0  1.21 0 0  1.22 0 0  1.23 0 0  1.24 0 0  1.25 0 0  1.26 0 0  1.27 0 0  1.28 0 0  1.29 0 0  1.3 0 0  1.31 0 0  1.32 0 0  1.33 0 0  1.34 0 0  1.35 0 0  1.36 0 0  1.37 0 0  1.38 0 0  1.39 0 0  1.4 0 0  1.41 0 0  1.42 0 0  1.43 0 0  1.44 0 0  1.45 0 0  1.46 0 0  1.47 0 0  1.48 0 0  1.49 0 0  1.5 0 0  1.51 0 0  1.52 0 0  1.53 0 0  1.54 0 0  1.55 0 0  1.56 0 0  1.57 0 0  1.58 0 0  1.59 0 0  1.6 0 0  1.61 0 0  1.62 0 0  1.63 0 0  1.64 0 0  1.65 0 0  1.66 0 0  1.67 0 0  1.68 0 0  1.69 0 0  1.7 0 0  1.71 0 0  1.72 0 0  1.73 0 0  1.74 0 0  1.75 0 0  1.76 0 0  1.77 0 0  1.78 0 0  1.79 0 0  1.8 0 0  1.81 0 0  1.82 0 0  1.83 0 0  1.84 0 0  1.85 0 0  1.86 0 0  1.87 0 0  1.88 0 0  1.89 0 0  1.9 0 0  1.91 0 0  1.92 0 0  1.93 0 0  1.94 0 0  1.95 0 0  1.96 0 0  1.97 0 0  1.98 0 0  1.99 0 0  2 0 0  2.01 0 0  2.02 0 0  2.03 0 0  2.04 0 0  2.05 0 0  2.06 0 0  2.07 0 0  2.08 0 0  2.09 0 0  2.1 0 0  2.11 0 0  2.12 0 0  2.13 0 0  2.14 0 0  2.15 0 0  2.16 0 0  2.17 0 0  2.18 0 0  2.19 0 0  2.2 0 0  2.21 0 0  2.22 0 0  2.23 0 0  2.24 0 0  2.25 0 0  2.26 0 0  2.27 0 0  2.28 0 0  2.29 0 0  2.3 0 0  2.31 0 0  2.32 0 0  2.33 0 0  2.34 0 0  2.35 0 0  2.36 0 0  2.37 0 0  2.38 0 0  2.39 0 0  2.4 0 0  2.41 0 0  2.42 0 0  2.43 0 0  2.44 0 0  2.45 0 0  2.46 0 0  2.47 0 0  2.48 0 0  2.49 0 0  2.5 0 0  2.51 0 0  2.52 0 0  2.53 0 0  2.54 0 0  2.55 0 0  2.56 0 0  2.57 0 0  2.58 0 0  2.59 0 0  2.6 0 0  2.61 0 0  2.62 0 0  2.63 0 0  2.64 0 0  2.65 0 0  2.66 0 0  2.67 0 0  2.68 0 0  2.69 0 0  2.7 0 0  2.71 0 0  2.72 0 0  2.73 0 0  2.74 0 0  2.75 0 0  2.76 0 0  2.77 0 0  2.78 0 0  2.79 0 0  2.8 0 0  2.81 0 0  2.82 0 0  2.83 0 0  2.84 0 0  2.85 0 0  2.86 0 0  2.87 0 0  2.88 0 0  2.89 0 0  2.9 0 0  2.91 0 0  2.92 0 0  2.93 0 0  2.94 0 0  2.95 0 0  2.96 0 0  2.97 0 0  2.98 0 0  2.99 0 0  3 0 0  3.01 0 0  3.02 0 0  3.03 0 0  3.04 0 0  3.05 0 0  3.06 0 0  3.07 0 0  3.08 0 0  3.09 0 0  3.1 0 0  3.11 0 0  3.12 0 0  3.13 0 0  3.14 0 0  3.15 0 0  3.16 0 0  3.17 0 0  3.18 0 0  3.19 0 0  3.2 0 0  3.21 0 0  3.22 0 0  3.23 0 0  3.24 0 0  3.25 0 0  3.26 0 0  3.27 0 0  3.28 0 0  3.29 0 0  3.3 0 0  3.31 0 0  3.32 0 0  3.33 0 0  3.34 0 0  3.35 0 0  3.36 0 0  3.37 0 0  3.38 0 0  3.39 0 0  3.4 0 0  3.41 0 0  3.42 0 0  3.43 0 0  3.44 0 0  3.45 0 0  3.46 0 0  3.47 0 0  3.48 0 0  3.49 0 0  3.5 0 0  3.51 0 0  3.52 0 0  3.53 0 0  3.54 0 0  3.55 0 0  3.56 0 0  3.57 0 0  3.58 0 0  3.59 0 0  3.6 0 0  3.61 0 0  3.62 0 0  3.63 0 0  3.64 0 0  3.65 0 0  3.66 0 0  3.67 0 0  3.68 0 0  3.69 0 0  3.7 0 0  3.71 0 0  3.72 0 0  3.73 0 0  3.74 0 0  3.75 0 0  3.76 0 0  3.77 0 0  3.78 0 0  3.79 0 0  3.8 0 0  3.81 0 0  3.82 0 0  3.83 0 0  3.84 0 0  3.85 0 0  3.86 0 0  3.87 0 0  3.88 0 0  3.89 0 0  3.9 0 0  3.91 0 0  3.92 0 0  3.93 0 0  3.94 0 0  3.95 0 0  3.96 0 0  3.97 0 0  3.98 0 0  3.99 0 0  4 0 0  4.01 0 0  4.02 0 0  4.03 0 0  4.04 0 0  4.05 0 0  4.06 0 0  4.07 0 0  4.08 0 0  4.09 0 0  4.1 0 0  4.11 0 0  4.12 0 0  4.13 0 0  4.14 0 0  4.15 0 0  4.16 0 0  4.17 0 0  4.18 0 0  4.19 0 0  4.2 0 0  4.21 0 0  4.22 0 0  4.23 0 0  4.24 0 0  4.25 0 0  4.26 0 0  4.27 0 0  4.28 0 0  4.29 0 0  4.3 0 0  4.31 0 0  4.32 0 0  4.33 0 0  4.34 0 0  4.35 0 0  4.36 0 0  4.37 0 0  4.38 0 0  4.39 0 0  4.4 0 0  4.41 0 0  4.42 0 0  4.43 0 0  4.44 0 0  4.45 0 0  4.46 0 0  4.47 0 0  4.48 0 0  4.49 0 0  4.5 0 0  4.51 -0.06282151815625525 0  4.52 -0.1255810390586241 0  4.53 -0.1882166266370302 0  4.54 -0.2506664671286087 0  4.55 -0.3128689300804606 0  4.56 -0.3747626291714468 0  4.57 -0.4362864827930868 0  4.58 -0.49737977432971 0  4.59 -0.5579822120784577 0  4.6 -0.6180339887498927 0  4.61 -0.6774758404905846 0  4.62 -0.7362491053693565 0  4.63 -0.7942957812695606 0  4.64 -0.8515585831301434 0  4.65 -0.9079809994790955 0  4.66 -0.9635073482034314 0  4.67 -1.018082831500742 0  4.68 -1.071653589957992 0  4.69 -1.124166755704263 0  4.7 -1.175570504584947 0  4.71 -1.225814107305953 0  4.72 -1.274847979497378 0  4.73 -1.322623730647306 0  4.74 -1.369094211857378 0  4.75 -1.414213562373095 0  4.76 -1.457937254842822 0  4.77 -1.500222139260917 0  4.78 -1.541026485551579 0  4.79 -1.580310024751381 0  4.8 -1.618033988749894 0  4.81 -1.654161148549122 0  4.82 -1.688655851004031 0  4.83 -1.721484054007887 0  4.84 -1.752613360087727 0  4.85 -1.782013048376735 0  4.86 -1.80965410493204 0  4.87 -1.835509251367963 0  4.88 -1.859552971776502 0  4.89 -1.88176153790845 0  4.9 -1.902113032590308 0  4.91 -1.920587371353886 0  4.92 -1.937166322257262 0  4.93 -1.951833523877494 0  4.94 -1.964574501457378 0  4.95 -1.975376681190276 0  4.96 -1.984229402628956 0  4.97 -1.99112392920616 0  4.98 -1.996053456856543 0  4.99 -1.999013120731463 0  5 -2 0  5.01 -1.999013120731463 0  5.02 -1.996053456856543 0  5.03 -1.99112392920616 0  5.04 -1.984229402628956 0  5.05 -1.975376681190276 0  5.06 -1.964574501457378 0  5.07 -1.951833523877494 0  5.08 -1.937166322257262 0  5.09 -1.920587371353886 0  5.1 -1.902113032590308 0  5.11 -1.88176153790845 0  5.12 -1.859552971776503 0  5.13 -1.835509251367963 0  5.14 -1.80965410493204 0  5.15 -1.782013048376735 0  5.16 -1.752613360087727 0  5.17 -1.721484054007888 0  5.18 -1.688655851004031 0  5.19 -1.654161148549123 0  5.2 -1.618033988749894 0  5.21 -1.580310024751381 0  5.22 -1.54102648555158 0  5.23 -1.500222139260918 0  5.24 -1.457937254842822 0  5.25 -1.414213562373095 0  5.26 -1.369094211857378 0  5.27 -1.322623730647306 0  5.28 -1.274847979497378 0  5.29 -1.225814107305953 0  5.3 -1.175570504584947 0  5.31 -1.124166755704263 0  5.32 -1.071653589957992 0  5.33 -1.018082831500742 0  5.34 -0.9635073482034312 0  5.35 -0.9079809994790962 0  5.36 -0.8515585831301434 0  5.37 -0.7942957812695605 0  5.38 -0.7362491053693571 0  5.39 -0.6774758404905852 0  5.4 -0.6180339887498926 0  5.41 -0.5579822120784582 0  5.42 -0.4973797743297105 0  5.43 -0.4362864827930872 0  5.44 -0.3747626291714474 0  5.45 -0.3128689300804611 0  5.46 -0.2506664671286091 0  5.47 -0.1882166266370305 0  5.48 -0.1255810390586245 0  5.49 -0.06282151815625558 0  5.5 -2.449293598294706e-16 0  5.51 0 0  5.52 0 0  5.53 0 0  5.54 0 0  5.55 0 0  5.56 0 0  5.57 0 0  5.58 0 0  5.59 0 0  5.6 0 0  5.61 0 0  5.62 0 0  5.63 0 0  5.64 0 0  5.65 0 0  5.66 0 0  5.67 0 0  5.68 0 0  5.69 0 0  5.7 0 0  5.71 0 0  5.72 0 0  5.73 0 0  5.74 0 0  5.75 0 0  5.76 0 0  5.77 0 0  5.78 0 0  5.79 0 0  5.8 0 0  5.81 0 0  5.82 0 0  5.83 0 0  5.84 0 0  5.85 0 0  5.86 0 0  5.87 0 0  5.88 0 0  5.89 0 0  5.9 0 0  5.91 0 0  5.92 0 0  5.93 0 0  5.94 0 0  5.95 0 0  5.96 0 0  5.97 0 0  5.98 0 0  5.99 0 0  6 0 0  6.01 0 0  6.02 0 0  6.03 0 0  6.04 0 0  6.05 0 0  6.06 0 0  6.07 0 0  6.08 0 0  6.09 0 0  6.1 0 0  6.11 0 0  6.12 0 0  6.13 0 0  6.14 0 0  6.15 0 0  6.16 0 0  6.17 0 0  6.18 0 0  6.19 0 0  6.2 0 0  6.21 0 0  6.22 0 0  6.23 0 0  6.24 0 0  6.25 0 0  6.26 0 0  6.27 0 0  6.28 0 0  6.29 0 0  6.3 0 0  6.31 0 0  6.32 0 0  6.33 0 0  6.34 0 0  6.35 0 0  6.36 0 0  6.37 0 0  6.38 0 0  6.39 0 0  6.4 0 0  6.41 0 0  6.42 0 0  6.43 0 0  6.44 0 0  6.45 0 0  6.46 0 0  6.47 0 0  6.48 0 0  6.49 0 0  6.5 0 0  6.51 0 0  6.52 0 0  6.53 0 0  6.54 0 0  6.55 0 0  6.56 0 0  6.57 0 0  6.58 0 0  6.59 0 0  6.6 0 0  6.61 0 0  6.62 0 0  6.63 0 0  6.64 0 0  6.65 0 0  6.66 0 0  6.67 0 0  6.68 0 0  6.69 0 0  6.7 0 0  6.71 0 0  6.72 0 0  6.73 0 0  6.74 0 0  6.75 0 0  6.76 0 0  6.77 0 0  6.78 0 0  6.79 0 0  6.8 0 0  6.81 0 0  6.82 0 0  6.83 0 0  6.84 0 0  6.85 0 0  6.86 0 0  6.87 0 0  6.88 0 0  6.89 0 0  6.9 0 0  6.91 0 0  6.92 0 0  6.93 0 0  6.94 0 0  6.95 0 0  6.96 0 0  6.97 0 0  6.98 0 0  6.99 0 0  7 0 0  7.01 0 0  7.02 0 0  7.03 0 0  7.04 0 0  7.05 0 0  7.06 0 0  7.07 0 0  7.08 0 0  7.09 0 0  7.1 0 0  7.11 0 0  7.12 0 0  7.13 0 0  7.14 0 0  7.15 0 0  7.16 0 0  7.17 0 0  7.18 0 0  7.19 0 0  7.2 0 0  7.21 0 0  7.22 0 0  7.23 0 0  7.24 0 0  7.25 0 0  7.26 0 0  7.27 0 0  7.28 0 0  7.29 0 0  7.3 0 0  7.31 0 0  7.32 0 0  7.33 0 0  7.34 0 0  7.35 0 0  7.36 0 0  7.37 0 0  7.38 0 0  7.39 0 0  7.4 0 0  7.41 0 0  7.42 0 0  7.43 0 0  7.44 0 0  7.45 0 0  7.46 0 0  7.47 0 0  7.48 0 0  7.49 0 0  7.5 0 0  7.51 0 0  7.52 0 0  7.53 0 0  7.54 0 0  7.55 0 0  7.56 0 0  7.57 0 0  7.58 0 0  7.59 0 0  7.6 0 0  7.61 0 0  7.62 0 0  7.63 0 0  7.64 0 0  7.65 0 0  7.66 0 0  7.67 0 0  7.68 0 0  7.69 0 0  7.7 0 0  7.71 0 0  7.72 0 0  7.73 0 0  7.74 0 0  7.75 0 0  7.76 0 0  7.77 0 0  7.78 0 0  7.79 0 0  7.8 0 0  7.81 0 0  7.82 0 0  7.83 0 0  7.84 0 0  7.85 0 0  7.86 0 0  7.87 0 0  7.88 0 0  7.89 0 0  7.9 0 0  7.91 0 0  7.92 0 0  7.93 0 0  7.94 0 0  7.95 0 0  7.96 0 0  7.97 0 0  7.98 0 0  7.99 0 0  8 0 0  8.01 0 0  8.02 0 0  8.029999999999999 0 0  8.039999999999999 0 0  8.0500000
[...]
<PointData  Scalars="f_1851"> 
<DataArray  type="Float64"  Name="f_1851"  format="ascii">1.0000000000000000e+00  1.0000000000000000e+00  8.3906436754618008e-01  7.3731068218932738e-01  6.6013062813080214e-01  6.0046711862709279e-01  5.5268754377464591e-01  5.1246054319190004e-01  4.7729459860659118e-01  4.4807307081326792e-01  4.2173366499558729e-01  3.9863603969912109e-01  3.7733673175763777e-01  3.5847413933781930e-01  3.4102676030131895e-01  3.2589198679596448e-01  3.1149277463664016e-01  2.9819677202944339e-01  2.8560243718266320e-01  2.7442791029921659e-01  2.6356068086880347e-01  2.5353620687897382e-01  2.4402821557948376e-01  2.3557510902646928e-01  2.2744245650505834e-01  2.1962931091231871e-01  2.1262888817894704e-01  2.0578120585045312e-01  1.9937417140968680e-01  1.9325838272381285e-01  1.8771972495630898e-01  1.8222722767093846e-01  1.7703722125832050e-01  1.7205441283532183e-01  1.6753329842760445e-01  1.6302828388927448e-01  1.5860095621745590e-01  1.5453956161746391e-01  1.5054368052790423e-01  1.4684467337159085e-01  1.4319806798879475e-01  1.3988510489388289e-01  1.3655800982392136e-01  1.3337711364798671e-01  1.3024585572039188e-01  1.2735561534820911e-01  1.2442433732939114e-01  1.2167736771582824e-01  1.1893891994822564e-01  1.1630904391638455e-01  1.1376680473852727e-01  1.1144486816040876e-01  1.0913056516952378e-01  1.0684113421345939e-01  1.0469831823759509e-01  1.0258021894180566e-01  1.0060872951808357e-01  9.8605370000298120e-02  9.6684352003247723e-02  9.4779175522283890e-02  9.3020543675037912e-02  9.1229222731241913e-02  8.9517960727695703e-02  8.7823692631439243e-02  8.6246609140624889e-02  8.4649489495560171e-02  8.3097167062708394e-02  8.1656430003274771e-02  8.0180801824267359e-02  7.8729205298392682e-02  7.7298591938552569e-02  7.5966909935492613e-02  7.4614852848844546e-02  7.3348377977560733e-02  7.2054052767073537e-02  7.0805027501716383e-02  6.9578455134308270e-02  6.8419845069029941e-02  6.7253473327475138e-02  6.6173979909470673e-02  6.5073783501568574e-02  6.4014584766403052e-02  6.2945766565346645e-02  6.1897802636656875e-02  6.0907923693414176e-02  5.9882718543115894e-02  5.8899949234024911e-02  5.7928602657379973e-02  5.7012279680370571e-02  5.6090157886557947e-02  5.5237073040328960e-02  5.4366977776908319e-02  5.3529883077782940e-02  5.2685304868846004e-02  5.1856870737418188e-02  5.1074821501678531e-02  5.0264532552193798e-02  4.9474290366338949e-02  4.8691298580894639e-02  4.7963027243316116e-02  4.7221399953395922e-02  4.6481026128576290e-02  4.5778585309678925e-02  4.5068725577948290e-02  4.4399425473295152e-02  4.3712571372923052e-02  4.3034620102604330e-02  4.2366906642487073e-02  4.1742449923899312e-02  4.1102140938691634e-02  4.0463116209689599e-02  3.9860895738521494e-02  3.9255256052362367e-02  3.8687159355007501e-02  3.8107233120330139e-02  3.7535383924072671e-02  3.7001726072711655e-02  3.6454115309286154e-02  3.5904426244249658e-02  3.5363968813758931e-02  3.4851113926867655e-02  3.4336369573025653e-02  3.3855417629154928e-02  3.3357485063294265e-02  3.2890337567103932e-02  3.2404666812963008e-02  3.1932328458530758e-02  3.1453389329086055e-02  3.0983265342457170e-02  3.0539001049900257e-02  3.0084599311825243e-02  2.9661666320048390e-02  2.9226360036872380e-02  2.8808962787090563e-02  2.8388997125730054e-02  2.7972507511750785e-02  2.7574199828275980e-02  2.7174771436360011e-02  2.6798960554759371e-02  2.6410359211457894e-02  2.6039456114878613e-02  2.5662356613861147e-02  2.5291830054234032e-02  2.4925090989684543e-02  2.4579774620204428e-02  2.4226484548965779e-02  2.3873700613864311e-02  2.3534749047846918e-02  2.3192992681625869e-02  2.2873537953777192e-02  2.2544252173503903e-02  2.2225398807990942e-02  2.1905612382509935e-02  2.1605375946967001e-02  2.1298586461766449e-02  2.1002059764945090e-02  2.0699501491980746e-02  2.0402645352727070e-02  2.0121892440425629e-02  1.9832281436145724e-02  1.9547462303336548e-02  1.9269316868793206e-02  1.9007199398989129e-02  1.8738884054265402e-02  1.8473355791718483e-02  1.8220934157479947e-02  1.7961483472035078e-02  1.7717642204781409e-02  1.7464146996864705e-02  1.7217107418628041e-02  1.6971196544073870e-02  1.6742296623120496e-02  1.6505798698779831e-02  1.6268892011692848e-02  1.6046801843254670e-02  1.5819113451743694e-02  1.5596435843230966e-02  1.5375605435388108e-02  1.5168529679488044e-02  1.4955731857230023e-02  1.4742457441682994e-02  1.4538794886637766e-02  1.4334848882086153e-02  1.4143496816697295e-02  1.3945288373576840e-02  1.3746990197133381e-02  1.3559871011966051e-02  1.3367374260276189e-02  1.3184682454212976e-02  1.2995635458017440e-02  1.2811492622996459e-02  1.2631351244023566e-02  1.2463512932800650e-02  1.2290271866329172e-02  1.2116228169403503e-02  1.1951798888989174e-02  1.1782702751919670e-02  1.1620364691246356e-02  1.1454336422425240e-02  1.1291139386161502e-02  1.1137549375371883e-02  1.0979153252806621e-02  1.0825074028201478e-02  1.0673738371304831e-02  1.0531683258218127e-02  1.0384300635484112e-02  1.0236187561566992e-02  1.0096589030900041e-02  9.9533259645800017e-03  9.8172427563573902e-03  9.6776957142751599e-03  9.5404260790788141e-03  9.4062146660801489e-03  9.2784031354960963e-03  9.1487442043169057e-03  9.0266950043178338e-03  8.9004877978424313e-03  8.7793498812126260e-03  8.6554114386959459e-03  8.5323271603150366e-03  8.4102143062490236e-03  8.2943589481573425e-03  8.1771879725328605e-03  8.0682590629414658e-03  7.9558381412410950e-03  7.8426008004733698e-03  7.7356556455753693e-03  7.6257687042719999e-03  7.5170803912005205e-03  7.4102544385692172e-03  7.3101160294046031e-03  7.2066357918881803e-03  7.1032260523474118e-03  7.0064510364804692e-03  6.9082591289905369e-03  6.8105334312237855e-03  6.7169978814564119e-03  6.6231255765755266e-03  6.5347832477300073e-03  6.4434008608121275e-03  6.3541757845788178e-03  6.2656229799462615e-03  6.1826788230360035e-03  6.0970566216457531e-03  6.0115051448710781e-03  5.9306420413201347e-03  5.8474814763956693e-03  5.7658262777690065e-03  5.6837118227359125e-03  5.6065845709447025e-03  5.5271976326563277e-03  5.4523117962001939e-03  5.3748924044979343e-03  5.2995774912353759e-03  5.2256134694921080e-03  5.1561858746369304e-03  5.0841535060665889e-03  5.0117527468738071e-03  4.9434863873866518e-03  4.8733983733462403e-03  4.8068114730010708e-03  4.7385025657935781e-03  4.6713954453549110e-03  4.6059082672524941e-03  4.5441328126388002e-03  4.4808548050581975e-03  4.4183047743102553e-03  4.3591543298708716e-03  4.2980008879702448e-03  4.2374453219523808e-03  4.1777931165298534e-03  4.1218450795493401e-03  4.0644911281576381e-03  4.0071137973703092e-03  3.9527419994914801e-03  3.8971113159630292e-03  3.8421543730787953e-03  3.7899740240525362e-03  3.7362731574469917e-03  3.6835112810147085e-03  3.6342016456215385e-03  3.5834896347092210e-03  3.5332060454960003e-03  3.4838547682464116e-03  3.4372387967569426e-03  3.3893428307818631e-03  3.3428580396587361e-03  3.2990647717929117e-03  3.2532728745020274e-03  3.2090596793804558e-03  3.1637965336841342e-03  3.1194933481088257e-03  3.0763311582091514e-03  3.0357969756995766e-03  2.9938409037864721e-03  2.9518756270060166e-03  2.9121704128540404e-03  2.8712950924851127e-03  2.8311385937663121e-03  2.7907417057015617e-03  2.7528081878914110e-03  2.7137738010181468e-03  2.6769706166498417e-03  2.6389414020247860e-03  2.6019628591250677e-03  2.5656634966443148e-03  2.5316045813947581e-03  2.4962828732148635e-03  2.4607906366020302e-03  2.4273387683088946e-03  2.3930086839374733e-03  2.3604046659406819e-03  2.3269692336189700e-03  2.2941273979875322e-03  2.2620816982211875e-03  2.2318527756958837e-03  2.2008890998756504e-03  2.1702804768717848e-03  2.1413305830740980e-03  2.1113952417344769e-03  2.0817442078965055e-03  2.0525264555909086e-03  2.0251142211048772e-03  1.9970037741451154e-03  1.9688291704504698e-03  1.9419514763583696e-03  1.9147413974421458e-03  1.8889896259984352e-03  1.8624646243217452e-03  1.8362938091126978e-03  1.8105165762842643e-03  1.7863584538927021e-03  1.7614297972767508e-03  1.7364702402844084e-03  1.7127876014106668e-03  1.6891164470751083e-03  1.6670608882849260e-03  1.6442624756519667e-03  1.6213801949426590e-03  1.5998059533983454e-03  1.5775953180236905e-03  1.5558015213690659e-03  1.5342888816900996e-03  1.5141496406667488e-03  1.4932761072109495e-03  1.4722269921612684e-03  1.4522114886019774e-03  1.4320302940012016e-03  1.4131283178859427e-03  1.3935159362893617e-03  1.3739190750991629e-03  1.3555824236815045e-03  1.3367475513537163e-03  1.3179806384413508e-03  1.3003352846171655e-03  1.2823578261662862e-03  1.2644693562652548e-03  1.2474388599097634e-03  1.2299358417239825e-03  1.2127100516373195e-03  1.1964086287489738e-03  1.1795511183663482e-03  1.1629673858087422e-03  1.1467185176297870e-03  1.1312663811672171e-03  1.1156450565334927e-03  1.1010553462260529e-03  1.0860385022319809e-03  1.0714579614547633e-03  1.0566040284694664e-03  1.0419674820676724e-03  1.0280211908923142e-03  1.0134451256013704e-03  9.9934870716309235e-04  9.8528329423121577e-04  9.7203061749785811e-04  9.5844117409331255e-04  9.4499989356096120e-04  9.3233199170270824e-04  9.1937612099505020e-04  9.0729379654869537e-04  8.9483141150996674e-04  8.8272530681743388e-04  8.7068663428472605e-04  8.5943081805256785e-04  8.4778705231242112e-04  8.3609304082202360e-04  8.2508518924593113e-04  8.1379986334139743e-04  8.0311849436039227e-04  7.9210630042148890e-04  7.8132695355108027e-04  7.7082889698859168e-04  7.6097474079510742e-04  7.5077736449653918e-04  7.4111782357033054e-04  7.3102867196670970e-04  7.2117214554531773e-04  7.1134439521385333e-04  7.0218800967535619e-04  6.9280823242488169e-04  6.8350970904638726e-04  6.7478657077694039e-04  6.6583494098691439e-04  6.5693269401969040e-04  6.4853560488882490e-04  6.3992771466108670e-04  6.3144780482885313e-04  6.2301266607720602e-04  6.1501109163454896e-04  6.0696734954498240e-04  5.9948184503888665e-04  5.9175844303867536e-04  5.8409014439163960e-04  5.7695780675160087e-04  5.6961421320903525e-04  5.6226275191426501e-04  5.5538031364320967e-04  5.4836672141807697e-04  5.4164874539695807e-04  5.3490266626825614e-04  5.2861441866357956e-04  5.2210971140350662e-04  5.1597710452135558e-04  5.0970067728298553e-04  5.0377758349153760e-04  4.9763494283326659e-04  4.9171274338628173e-04  4.8587973603947274e-04  4.8052445310002681e-04  4.7514289369722767e-04  4.6980326425593368e-04  4.6478008540871648e-04  4.5981411979320401e-04  4.5523026529996287e-04  4.5057074978087499e-04  4.4615292017651605e-04  4.4183369868244527e-04  4.3785825014083519e-04  4.3396395803045184e-04  4.3047882192766436e-04  4.2704163726873108e-04  4.2395766491587326e-04  4.2098543518655500e-04  4.1838872284014506e-04  4.1592467511621692e-04  4.1386781026798059e-04  4.1219212672862312e-04  4.1097793073969965e-04  4.1011052460835311e-04  4.0915951677941465e-04  4.0760234308874710e-04  2.5594645198903171e-04  1.8108200839590203e-04  1.3351357772533785e-04  1.0638261573768854e-04  8.3447109105444706e-05  6.6840738047222747e-05  5.6828621377953003e-05  4.6284068762786419e-05  3.7654230202449668e-05  3.2162591677982631e-05  2.6097112292948436e-05  2.1973339247865156e-05  1.7861678830990745e-05  1.4821329833682472e-05  1.2252791061743499e-05  1.0564865225979100e-05  8.6977917611518299e-06  7.3386209735457858e-06  5.9887582647662306e-06  4.9678686702780322e-06  4.0976465539041274e-06  3.5190276019293262e-06  2.8941369318904800e-06  2.4322749733030186e-06  2.0023991143754182e-06  1.7095870242807826e-06  1.4206291705942166e-06  1.1717882728706298e-06  9.7678539943293356e-07  8.4040451504753845e-07  7.0712248400965131e-07  5.8788527226537082e-07  4.9777916920490410e-07  4.2046167288012221e-07  3.6484872384478854e-07  3.1043994544311071e-07  2.6789556423029858e-07  2.3052808499127120e-07  2.0320841563957083e-07  1.7780822549683350e-07  1.5897252473347958e-07  1.4164368052939826e-07  1.2741516055764139e-07  1.1711145538874587e-07  1.0970782422307375e-07  1.0331273286944089e-07  9.8873595682538370e-08  9.6039566903007524e-08  9.4526400850982825e-08  9.3935300472501292e-08  9.4526970455874330e-08  9.6261427928616902e-08  9.8893789078911681e-08  1.0312337178611157e-07  1.0898933079504747e-07  1.1696742575618290e-07  1.2761946092578266e-07  1.4174117188738807e-07  1.5898371613877501e-07  1.7775697162403590e-07  2.0310800254475564e-07  2.3038062135264978e-07  2.6768909678536211e-07  3.1018895406313431e-07  3.6458402787870234e-07  4.2059655488751576e-07  4.9894464196550802e-07  5.9214782658111889e-07  7.0766876239661195e-07  8.2538323386223393e-07  9.9596557551434766e-07  1.1677529822668418e-06  1.4083940588773328e-06  1.6940603947060662e-06  1.9861511297521303e-06  2.4152298900607797e-06  2.8747572108561351e-06  3.4879857808596855e-06  4.0585520081844160e-06  4.9211492938175759e-06  5.8661484210127629e-06  7.1615535535617418e-06  8.4567791967554767e-06  1.0284013457788879e-05  1.1829410214387871e-05  1.4083779670992357e-05  1.6773892279065562e-05  2.0426833608611793e-05  2.4165986715959654e-05  2.8015059840689368e-05  3.2735649579968425e-05  3.7962934251447085e-05  4.5234644386308813e-05  5.3212886201003644e-05  6.1323350608310053e-05  7.1470907353492503e-05  8.2091507908256872e-05  9.8800890236969865e-05  1.2038225945133097e-04  1.5894484176719886e-04  1.4951970090096650e-04  1.4226401458211968e-04  1.3646346842395641e-04  1.3149688581245785e-04  1.2707652479005880e-04  1.2299978518303265e-04  1.1945567884910444e-04  1.1612177702788266e-04  1.1292960489556823e-04  1.1008205411905533e-04  1.0730127153619812e-04  1.0471567751211611e-04  1.0225948103049859e-04  1.0003608785941063e-04  9.7819686052702298e-05  9.5785704736027109e-05  9.3727608877263149e-05  9.1772000128728572e-05  8.9873601613486308e-05  8.8137006805006930e-05  8.6384808460032540e-05  8.4737535514419835e-05  8.3088302650953007e-05  8.1550067694516920e-05  7.9998306968949705e-05  7.8495166003037339e-05  7.7114995747742677e-05  7.5719087118944530e-05  7.4363683821731180e-05  7.3043392409540380e-05  7.1818259282387968e-05  7.0579032886405164e-05  6.9385653220447379e-05  6.8202975420920245e-05  6.7101511569309856e-05  6.5974517283638127e-05  6.4884255253368136e-05  6.3812112897859550e-05  6.2816908228762627e-05  6.1799329512845662e-05  6.0788083022219445e-05  5.9840719114333154e-05  5.8875430079161928e-05  5.7935466419948996e-05  5.6998132961051422e-05  5.6124088599142366e-05  5.5231597657057525e-05  5.4395412647910894e-05  5.3537357313359841e-05  5.2707046882414111e-05  5.1896004767520260e-05  5.1138537419262111e-05  5.0356815043038177e-05  4.9571197714072772e-05  4.8831667426726469e-05  4.8079955913656301e-05  4.7372369742010121e-05  4.6647173921023053e-05  4.5936847008037874e-05  4.5244683797581643e-05  4.4594287374904465e-05  4.3930537727798799e-05  4.3275481273724759e-05  4.2658024835103047e-05  4.2021681574306654e-05  4.1393743260371308e-05  4.0776306895140537e-05  4.0198721511915349e-05  3.9608147847197346e-05  3.9018194400512105e-05  3.8460624616719235e-05  3.7891659820124563e-05  3.7330392162441772e-05  3.6799271336661755e-05  3.6254729422662823e-05  3.5719799975524417e-05  3.5220859271280768e-05  3.4709097538180504e-05  3.4202882469419264e-05  3.3706451785267175e-05  3.3237850972134251e-05  3.2756660084011914e-05  3.2289954970036719e-05  3.1850303960601015e-05  3.1390463304064183e-05  3.0946849257384433e-05  3.0492027099036277e-05  3.0049784853533997e-05  2.9618056816376101e-05  2.9213869990631676e-05  2.8796329006358294e-05  2.8378442032388020e-05  2.7983934208042569e-05  2.7578738563636280e-05  2.7181118595646764e-05  2.6781798255962724e-05  2.6407648764920624e-05  2.6023681762454804e-05  2.5662514969228941e-05  2.5290382287422174e-05  2.4929137171784468e-05  2.4575228027780016e-05  2.4243754968694564e-05  2.3900659119146793e-05  2.3555126587439221e-05  2.3228809579506605e-05  2.2896010129257515e-05  2.2581823917209723e-05  2.2258839030547438e-05  2.1940918363240926e-05  2.1630565179442219e-05  2.1337889750161544e-05  2.1038141731475644e-05  2.0741782435894399e-05  2.0461297540177608e-05  2.0170946465374849e-05  1.9883738959849656e-05  1.9599873928159908e-05  1.9333907301900530e-05  1.9061430896275261e-05  1.8788368742211790e-05  1.8527617667243606e-05  1.8264312287736859e-05  1.8015176027621925e-05  1.7757921450667938e-05  1.7505082560352526e-05  1.7255330321576881e-05  1.7021710026972389e-05  1.6780644963472910e-05  1.6540133441762036e-05  1.6315265673464099e-05  1.6086828743685871e-05  1.5859076391373135e-05  1.5640747032462449e-05  1.5421094691460311e-05  1.5213855484462516e-05  1.4998627383515396e-05  1.4788233274340155e-05  1.4579304642562569e-05  1.4383834395768426e-05  1.4181198697173746e-05  1.3990781150896776e-05  1.3792493963366087e-05  1.3598716074985758e-05  1.3404873801686709e-05  1.3223788822535065e-05  1.3036734181799654e-05  1.2859607305466587e-05  1.2679105368521520e-05  1.2498432808235346e-05  1.2325762628545788e-05  1.2153077223705778e-05  1.1990649856171893e-05  1.1822345316529448e-05  1.1653487760823625e-05  1.1493479627690354e-05  1.1330484979686906e-05  1.1176269108629548e-05  1.1017392572612470e-05  1.0861160793598152e-05  1.0709410370173722e-05  1.0567138003737160e-05  1.0420223142393750e-05  1.0273476314611571e-05  1.0134738090640598e-05  9.9921184898246925e-06  9.8513938867909588e-06  9.7106341245817426e-06  9.5781489953174220e-06  9.4422492215445792e-06  9.3140273515546006e-06  9.1821734914410835e-06  9.0528224111843424e-06  8.9315542825501201e-06  8.8060528437793944e-06  8.6843256401988053e-06  8.5610269453426059e-06  8.4398692894960853e-06  8.3246897380177842e-06  8.2062402776489337e-06  8.0948881736346119e-06  7.9790940705752170e-06  7.8666598851620201e-06  7.7547251944107265e-06  7.6503783901521307e-06  7.5425898274730561e-06  7.4414718194509724e-06  7.3363375531862623e-06  7.2338642548081368e-06  7.1318357207059139e-06  7.0366351501459356e-06  6.9384137858659962e-06  6.8453940381946748e-06  6.7505150306005841e-06  6.6561805487098061e-06  6.5668152863986740e-06  6.4748501229035332e-06  6.3833506927757043e-06  6.2930156551188856e-06  6.2082799922865790e-06  6.1216233888042287e-06  6.0349220511766920e-06  5.9527306990558943e-06  5.8687306045374524e-06  5.7854835599964166e-06  5.7053449983319694e-06  5.6243451182433857e-06  5.5483206335893034e-06  5.4696011337171581e-06  5.3930388172557679e-06  5.3158795036052839e-06  5.2430036632279119e-06  5.1680497173260240e-06  5.0951893514757513e-06  5.0267349254983070e-06  4.9554337469282713e-06  4.8863639355312037e-06  4.8167784175865840e-06  4.7485992234591859e-06  4.6841223313823892e-06  4.6181775522780191e-06  4.5565031657980650e-06  4.4927086242601570e-06  4.4315598896073012e-06  4.3692079400925011e-06  4.3090299179450581e-06  4.2488107136615955e-06  4.1925018732865246e-06  4.1344853337234526e-06  4.0782183931763602e-06  4.0209943608889153e-06  3.9646832424449552e-06  3.9112018362809644e-06  3.8555720572240061e-06  3.8011946888797224e-06  3.7473205922252666e-06  3.6968197425706645e-06  3.6449914935842103e-06  3.5956784205420102e-06  3.5449662850947003e-06  3.4973365812307267e-06  3.4478552288776272e-06  3.3996372775363358e-06  3.3515986366277598e-06  3.3067193042399375e-06  3.2602841224266202e-06  3.2140152543190783e-06  3.1706408859769777e-06  3.1256803123040257e-06  3.0805767847130843e-06  3.0382713106769429e-06  2.9950727764560974e-06  2.9540862724697733e-06  2.9120871713337172e-06  2.8712161917984299e-06  2.8327835321706121e-06  2.7928369999417154e-06  2.7531619729278118e-06  2.7134487696420107e-06  2.6761722914741359e-06  2.6378335665939302e-06  2.6016951595938903e-06  2.5643657116818338e-06  2.5282368333064052e-06  2.4924789480648524e-06  2.4586738447378790e-06  2.4239013529444244e-06  2.3898116057917759e-06  2.3577666905276958e-06  2.3245137656649994e-06  2.2914132151994686e-06  2.2584042033445687e-06  2.2273318127573614e-06  2.1954288421664665e-06  2.1652224430992666e-06  2.1340233012031926e-06  2.1036365165369583e-06  2.0735682608388