<?xml version="1.0"?>
<VTKFile type="UnstructuredGrid"  version="0.1"  >
<UnstructuredGrid>
<Piece  NumberOfPoints="4989" NumberOfCells="7775">
<Points>
<DataArray  type="Float64"  NumberOfComponents="3"  format="ascii">0 0.01 0  0 0 0  0.01 0 0  0.02 0 0  0.03 0 0  0.04 0 0  0.05 0 0  0.06 0 0  0.07000000000000001 0 0  0.08 0 0  0.09 0 0  0.1 0 0  0.11 0 0  0.12 0 0  0.13 0 0  0.14 0 0  0.15 0 0  0.16 0 0  0.17 0 0  0.18 0 0  0.19 0 0  0.2 0 0  0.21 0 0  0.22 0 0  0.23 0 0  0.24 0 0  0.25 0 0  0.26 0 0  0.27 0 0  0.28 0 0  0.29 0 0  0.3 0 0  0.31 0 0  0.32 0 0  0.33 0 0  0.34 0 0  0.35 0 0  0.36 0 0  0.37 0 0  0.38 0 0  0.39 0 0  0.4 0 0  0.41 0 0  0.42 0 0  0.43 0 0  0.44 0 0  0.45 0 0  0.46 0 0  0.47 0 0  0.48 0 0  0.49 0 0  0.5 0 0  0.51 0 0  0.52 0 0  0.53 0 0  0.54 0 0  0.55 0 0  0.5600000000000001 0 0  0.57 0 0  0.58 0 0  0.59 0 0  0.6 0 0  0.61 0 0  0.62 0 0  0.63 0 0  0.64 0 0  0.65 0 0  0.66 0 0  0.67 0 0  0.68 0 0  0.6899999999999999 0 0  0.7 0 0  0.71 0 0  0.72 0 0  0.73 0 0  0.74 0 0  0.75 0 0  0.76 0 0  0.77 0 0  0.78 0 0  0.79 0 0  0.8 0 0  0.8100000000000001 0 0  0.82 0 0  0.83 0 0  0.84 0 0  0.85 0 0  0.86 0 0  0.87 0 0  0.88 0 0  0.89 0 0  0.9 0 0  0.91 0 0  0.92 0 0  0.93 0 0  0.9399999999999999 0 0  0.95 0 0  0.96 0 0  0.97 0 0  0.98 0 0  0.99 0 0  1 0 0  1.01 0 0  1.02 0 0  1.03 0 0  1.04 0 0  1.05 0 0  1.06 0 0  1.07 0 0  1.08 0 0  1.09 0 0  1.1 0 0  1.11 0 0  1.12 0 0  1.13 0 0  1.14 0 0  1.15 0 0  1.16 0 0  1.17 0 0  1.18 0 0  1.19 0 0  1.2 0 0  1.21 0 0  1.22 0 0  1.23 0 0  1.24 0 0  1.25 0 0  1.26 0 0  1.27 0 0  1.28 0 0  1.29 0 0  1.3 0 0  1.31 0 0  1.32 0 0  1.33 0 0  1.34 0 0  1.35 0 0  1.36 0 0  1.37 0 0  1.38 0 0  1.39 0 0  1.4 0 0  1.41 0 0  1.42 0 0  1.43 0 0  1.44 0 0  1.45 0 0  1.46 0 0  1.47 0 0  1.48 0 0  1.49 0 0  1.5 0 0  1.51 0 0  1.52 0 0  1.53 0 0  1.54 0 0  1.55 0 0  1.56 0 0  1.57 0 0  1.58 0 0  1.59 0 0  1.6 0 0  1.61 0 0  1.62 0 0  1.63 0 0  1.64 0 0  1.65 0 0  1.66 0 0  1.67 0 0  1.68 0 0  1.69 0 0  1.7 0 0  1.71 0 0  1.72 0 0  1.73 0 0  1.74 0 0  1.75 0 0  1.76 0 0  1.77 0 0  1.78 0 0  1.79 0 0  1.8 0 0  1.81 0 0  1.82 0 0  1.83 0 0  1.84 0 0  1.85 0 0  1.86 0 0  1.87 0 0  1.88 0 0  1.89 0 0  1.9 0 0  1.91 0 0  1.92 0 0  1.93 0 0  1.94 0 0  1.95 0 0  1.96 0 0  1.97 0 0  1.98 0 0  1.99 0 0  2 0 0  2.01 0 0  2.02 0 0  2.03 0 0  2.04 0 0  2.05 0 0  2.06 0 0  2.07 0 0  2.08 0 0  2.09 0 0  2.1 0 0  2.11 0 0  2.12 0 0  2.13 0 0  2.14 0 0  2.15 0 0  2.16 0 0  2.17 0 0  2.18 0 0  2.19 0 0  2.2 0 0  2.21 0 0  2.22 0 0  2.23 0 0  2.24 0 0  2.25 0 0  2.26 0 0  2.27 0 0  2.28 0 0  2.29 0 0  2.3 0 0  2.31 0 0  2.32 0 0  2.33 0 0  2.34 0 0  2.35 0 0  2.36 0 0  2.37 0 0  2.38 0 0  2.39 0 0  2.4 0 0  2.41 0 0  2.42 0 0  2.43 0 0  2.44 0 0  2.45 0 0  2.46 0 0  2.47 0 0  2.48 0 0  2.49 0 0  2.5 0 0  2.51 0 0  2.52 0 0  2.53 0 0  2.54 0 0  2.55 0 0  2.56 0 0  2.57 0 0  2.58 0 0  2.59 0 0  2.6 0 0  2.61 0 0  2.62 0 0  2.63 0 0  2.64 0 0  2.65 0 0  2.66 0 0  2.67 0 0  2.68 0 0  2.69 0 0  2.7 0 0  2.71 0 0  2.72 0 0  2.73 0 0  2.74 0 0  2.75 0 0  2.76 0 0  2.77 0 0  2.78 0 0  2.79 0 0  2.8 0 0  2.81 0 0  2.82 0 0  2.83 0 0  2.84 0 0  2.85 0 0  2.86 0 0  2.87 0 0  2.88 0 0  2.89 0 0  2.9 0 0  2.91 0 0  2.92 0 0  2.93 0 0  2.94 0 0  2.95 0 0  2.96 0 0  2.97 0 0  2.98 0 0  2.99 0 0  3 0 0  3.01 0 0  3.02 0 0  3.03 0 0  3.04 0 0  3.05 0 0  3.06 0 0  3.07 0 0  3.08 0 0  3.09 0 0  3.1 0 0  3.11 0 0  3.12 0 0  3.13 0 0  3.14 0 0  3.15 0 0  3.16 0 0  3.17 0 0  3.18 0 0  3.19 0 0  3.2 0 0  3.21 0 0  3.22 0 0  3.23 0 0  3.24 0 0  3.25 0 0  3.26 0 0  3.27 0 0  3.28 0 0  3.29 0 0  3.3 0 0  3.31 0 0  3.32 0 0  3.33 0 0  3.34 0 0  3.35 0 0  3.36 0 0  3.37 0 0  3.38 0 0  3.39 0 0  3.4 0 0  3.41 0 0  3.42 0 0  3.43 0 0  3.44 0 0  3.45 0 0  3.46 0 0  3.47 0 0  3.48 0 0  3.49 0 0  3.5 0 0  3.51 0 0  3.52 0 0  3.53 0 0  3.54 0 0  3.55 0 0  3.56 0 0  3.57 0 0  3.58 0 0  3.59 0 0  3.6 0 0  3.61 0 0  3.62 0 0  3.63 0 0  3.64 0 0  3.65 0 0  3.66 0 0  3.67 0 0  3.68 0 0  3.69 0 0  3.7 0 0  3.71 0 0  3.72 0 0  3.73 0 0  3.74 0 0  3.75 0 0  3.76 0 0  3.77 0 0  3.78 0 0  3.79 0 0  3.8 0 0  3.81 0 0  3.82 0 0  3.83 0 0  3.84 0 0  3.85 0 0  3.86 0 0  3.87 0 0  3.88 0 0  3.89 0 0  3.9 0 0  3.91 0 0  3.92 0 0  3.93 0 0  3.94 0 0  3.95 0 0  3.96 0 0  3.97 0 0  3.98 0 0  3.99 0 0  4 0 0  4.01 0 0  4.02 0 0  4.03 0 0  4.04 0 0  4.05 0 0  4.06 0 0  4.07 0 0  4.08 0 0  4.09 0 0  4.1 0 0  4.11 0 0  4.12 0 0  4.13 0 0  4.14 0 0  4.15 0 0  4.16 0 0  4.17 0 0  4.18 0 0  4.19 0 0  4.2 0 0  4.21 0 0  4.22 0 0  4.23 0 0  4.24 0 0  4.25 0 0  4.26 0 0  4.27 0 0  4.28 0 0  4.29 0 0  4.3 0 0  4.31 0 0  4.32 0 0  4.33 0 0  4.34 0 0  4.35 0 0  4.36 0 0  4.37 0 0  4.38 0 0  4.39 0 0  4.4 0 0  4.41 0 0  4.42 0 0  4.43 0 0  4.44 0 0  4.45 0 0  4.46 0 0  4.47 0 0  4.48 0 0  4.49 0 0  4.5 0 0  4.51 0 0  4.52 0 0  4.53 0 0  4.54 0 0  4.55 0 0  4.56 0 0  4.57 0 0  4.58 0 0  4.59 0 0  4.6 0 0  4.61 0 0  4.62 0 0  4.63 0 0  4.64 0 0  4.65 0 0  4.66 0 0  4.67 0 0  4.68 0 0  4.69 0 0  4.7 0 0  4.71 0 0  4.72 0 0  4.73 0 0  4.74 0 0  4.75 0 0  4.76 -0.1255810390586241 0  4.77 -0.2506664671286032 0  4.78 -0.3747626291714523 0  4.79 -0.49737977432971 0  4.8 -0.6180339887498927 0  4.81 -0.7362491053693513 0  4.82 -0.8515585831301485 0  4.83 -0.9635073482034314 0  4.84 -1.071653589957992 0  4.85 -1.175570504584943 0  4.86 -1.274847979497382 0  4.87 -1.369094211857378 0  4.88 -1.457937254842822 0  4.89 -1.541026485551576 0  4.9 -1.618033988749897 0  4.91 -1.688655851004031 0  4.92 -1.752613360087727 0  4.93 -1.809654104932038 0  4.94 -1.859552971776504 0  4.95 -1.902113032590308 0  4.96 -1.937166322257262 0  4.97 -1.964574501457377 0  4.98 -1.984229402628956 0  4.99 -1.996053456856543 0  5 -2 0  5.01 -1.996053456856543 0  5.02 -1.984229402628956 0  5.03 -1.964574501457377 0  5.04 -1.937166322257262 0  5.05 -1.902113032590308 0  5.06 -1.859552971776505 0  5.07 -1.809654104932037 0  5.08 -1.752613360087727 0  5.09 -1.688655851004031 0  5.1 -1.618033988749898 0  5.11 -1.541026485551576 0  5.12 -1.457937254842822 0  5.13 -1.369094211857378 0  5.14 -1.274847979497382 0  5.15 -1.175570504584943 0  5.16 -1.071653589957992 0  5.17 -0.9635073482034312 0  5.18 -0.851558583130149 0  5.19 -0.7362491053693513 0  5.2 -0.6180339887498926 0  5.21 -0.4973797743297105 0  5.22 -0.3747626291714526 0  5.23 -0.2506664671286038 0  5.24 -0.1255810390586245 0  5.25 -2.449293598294706e-16 0  5.26 0 0  5.27 0 0  5.28 0 0  5.29 0 0  5.3 0 0  5.31 0 0  5.32 0 0  5.33 0 0  5.34 0 0  5.35 0 0  5.36 0 0  5.37 0 0  5.38 0 0  5.39 0 0  5.4 0 0  5.41 0 0  5.42 0 0  5.43 0 0  5.44 0 0  5.45 0 0  5.46 0 0  5.47 0 0  5.48 0 0  5.49 0 0  5.5 0 0  5.51 0 0  5.52 0 0  5.53 0 0  5.54 0 0  5.55 0 0  5.56 0 0  5.57 0 0  5.58 0 0  5.59 0 0  5.6 0 0  5.61 0 0  5.62 0 0  5.63 0 0  5.64 0 0  5.65 0 0  5.66 0 0  5.67 0 0  5.68 0 0  5.69 0 0  5.7 0 0  5.71 0 0  5.72 0 0  5.73 0 0  5.74 0 0  5.75 0 0  5.76 0 0  5.77 0 0  5.78 0 0  5.79 0 0  5.8 0 0  5.81 0 0  5.82 0 0  5.83 0 0  5.84 0 0  5.85 0 0  5.86 0 0  5.87 0 0  5.88 0 0  5.89 0 0  5.9 0 0  5.91 0 0  5.92 0 0  5.93 0 0  5.94 0 0  5.95 0 0  5.96 0 0  5.97 0 0  5.98 0 0  5.99 0 0  6 0 0  6.01 0 0  6.02 0 0  6.03 0 0  6.04 0 0  6.05 0 0  6.06 0 0  6.07 0 0  6.08 0 0  6.09 0 0  6.1 0 0  6.11 0 0  6.12 0 0  6.13 0 0  6.14 0 0  6.15 0 0  6.16 0 0  6.17 0 0  6.18 0 0  6.19 0 0  6.2 0 0  6.21 0 0  6.22 0 0  6.23 0 0  6.24 0 0  6.25 0 0  6.26 0 0  6.27 0 0  6.28 0 0  6.29 0 0  6.3 0 0  6.31 0 0  6.32 0 0  6.33 0 0  6.34 0 0  6.35 0 0  6.36 0 0  6.37 0 0  6.38 0 0  6.39 0 0  6.4 0 0  6.41 0 0  6.42 0 0  6.43 0 0  6.44 0 0  6.45 0 0  6.46 0 0  6.47 0 0  6.48 0 0  6.49 0 0  6.5 0 0  6.51 0 0  6.52 0 0  6.53 0 0  6.54 0 0  6.55 0 0  6.56 0 0  6.57 0 0  6.58 0 0  6.59 0 0  6.6 0 0  6.61 0 0  6.62 0 0  6.63 0 0  6.64 0 0  6.65 0 0  6.66 0 0  6.67 0 0  6.68 0 0  6.69 0 0  6.7 0 0  6.71 0 0  6.72 0 0  6.73 0 0  6.74 0 0  6.75 0 0  6.76 0 0  6.77 0 0  6.78 0 0  6.79 0 0  6.8 0 0  6.81 0 0  6.82 0 0  6.83 0 0  6.84 0 0  6.85 0 0  6.86 0 0  6.87 0 0  6.88 0 0  6.89 0 0  6.9 0 0  6.91 0 0  6.92 0 0  6.93 0 0  6.94 0 0  6.95 0 0  6.96 0 0  6.97 0 0  6.98 0 0  6.99 0 0  7 0 0  7.01 0 0  7.02 0 0  7.03 0 0  7.04 0 0  7.05 0 0  7.06 0 0  7.07 0 0  7.08 0 0  7.09 0 0  7.1 0 0  7.11 0 0  7.12 0 0  7.13 0 0  7.14 0 0  7.15 0 0  7.16 0 0  7.17 0 0  7.18 0 0  7.19 0 0  7.2 0 0  7.21 0 0  7.22 0 0  7.23 0 0  7.24 0 0  7.25 0 0  7.26 0 0  7.27 0 0  7.28 0 0  7.29 0 0  7.3 0 0  7.31 0 0  7.32 0 0  7.33 0 0  7.34 0 0  7.35 0 0  7.36 0 0  7.37 0 0  7.38 0 0  7.39 0 0  7.4 0 0  7.41 0 0  7.42 0 0  7.43 0 0  7.44 0 0  7.45 0 0  7.46 0 0  7.47 0 0  7.48 0 0  7.49 0 0  7.5 0 0  7.51 0 0  7.52 0 0  7.53 0 0  7.54 0 0  7.55 0 0  7.56 0 0  7.57 0 0  7.58 0 0  7.59 0 0  7.6 0 0  7.61 0 0  7.62 0 0  7.63 0 0  7.64 0 0  7.65 0 0  7.66 0 0  7.67 0 0  7.68 0 0  7.69 0 0  7.7 0 0  7.71 0 0  7.72 0 0  7.73 0 0  7.74 0 0  7.75 0 0  7.76 0 0  7.77 0 0  7.78 0 0  7.79 0 0  7.8 0 0  7.81 0 0  7.82 0 0  7.83 0 0  7.84 0 0  7.85 0 0  7.86 0 0  7.87 0 0  7.88 0 0  7.89 0 0  7.9 0 0  7.91 0 0  7.92 0 0  7.93 0 0  7.94 0 0  7.95 0 0  7.96 0 0  7.97 0 0  7.98 0 0  7.99 0 0  8 0 0  8.01 0 0  8.02 0 0  8.029999999999999 0 0  8.039999999999999 0 0  8.050000000000001 0 0  8.06 0 0  8.07 0 0  8.08 0 0  8.09 0 0  8.1 0 0  8.109999999999999 0 0  8.119999999999999 0 0  8.130000000000001 0 0  8.140000000000001 0 0  8.15 0 0  8.16 0 0  8.17 0 0  8.18 0 0  8.19 0 0  8.199999999999999 0 0  8.210000000000001 0 0  8.220000000000001 0 0  8.23 0 0  8.24 0 0  8.25 0 0  8.26 0 0  8.27 0 0  8.279999999999999 0 0  8.289999999999999 0 0  8.300000000000001 0 0  8.31 0 0  8.32 0 0  8.33 0 0  8.34 0 0  8.35 0 0  8.359999999999999 0 0  8.369999999999999 0 0  8.380000000000001 0 0  8.390000000000001 0 0  8.4 0 0  8.41 0 0  8.42 0 0  8.43 0 0  8.44 0 0  8.449999999999999 0 0  8.460000000000001 0 0  8.470000000000001 0 0  8.48 0 0  8.49 0 0  8.5 0 0  8.51 0 0  8.52 0 0  8.529999999999999 0 0  8.539999999999999 0 0  8.550000000000001 0 0  8.56 0 0  8.57 0 0  8.58 0 0  8.59 0 0  8.6 0 0  8.609999999999999 0 0  8.619999999999999 0
[...]
<PointData  Scalars="f_2482"> 
<DataArray  type="Float64"  Name="f_2482"  format="ascii">1.0000000000000000e+00  1.0000000000000000e+00  9.7600679595478135e-01  9.5863350710096906e-01  9.4397946588451698e-01  9.3129844731166567e-01  9.2047413674337142e-01  9.1065043792271427e-01  9.0165699926521026e-01  8.9344117310088556e-01  8.8591869225950903e-01  8.7887101028086789e-01  8.7226341191153312e-01  8.6603616487203616e-01  8.6013552273960803e-01  8.5458333152154686e-01  8.4932284897004950e-01  8.4427031580186085e-01  8.3940443521091501e-01  8.3476391426346608e-01  8.3030339321603963e-01  8.2601638431264102e-01  8.2189330707199504e-01  8.1796074440054400e-01  8.1418515581313755e-01  8.1048692616384033e-01  8.0693889731064461e-01  8.0350820705633141e-01  8.0017656008683180e-01  7.9693278259170486e-01  7.9379996028501976e-01  7.9074856953117101e-01  7.8777562556328284e-01  7.8487400266731866e-01  7.8206560195590713e-01  7.7932321221899215e-01  7.7661107512068506e-01  7.7398509167810658e-01  7.7141971639141360e-01  7.6892630511179949e-01  7.6648195826439014e-01  7.6410238572033895e-01  7.6176303084590158e-01  7.5945849593911707e-01  7.5718153819226564e-01  7.5495581553332325e-01  7.5275995458203615e-01  7.5060963267270542e-01  7.4849633128084081e-01  7.4642624688092840e-01  7.4439721690897664e-01  7.4242363466780847e-01  7.4048771384171785e-01  7.3856796524441759e-01  7.3668814857853149e-01  7.3483288585940354e-01  7.3301713654818024e-01  7.3122471396731614e-01  7.2945653716169390e-01  7.2770651580885248e-01  7.2599637872718004e-01  7.2430898242585484e-01  7.2264783738809646e-01  7.2100692851620007e-01  7.1939778048820757e-01  7.1780659933625279e-01  7.1622616136133166e-01  7.1467512638953712e-01  7.1313797842745830e-01  7.1161641576806911e-01  7.1011082721715824e-01  7.0863226229936971e-01  7.0716767083489718e-01  7.0572541220149554e-01  7.0429576456189535e-01  7.0288234427788088e-01  7.0148255173303353e-01  7.0010424214662414e-01  6.9873586358434681e-01  6.9739280145915650e-01  6.9606188285733961e-01  6.9474553591429888e-01  6.9344048531825719e-01  6.9214208034715241e-01  6.9086359803323427e-01  6.8959315483863914e-01  6.8833978094291814e-01  6.8710003662532915e-01  6.8588131883210568e-01  6.8467305296872738e-01  6.8348598161091467e-01  6.8230832136696451e-01  6.8114220254539637e-01  6.7998448067122386e-01  6.7883160155277811e-01  6.7769457109025355e-01  6.7656270188500733e-01  6.7543957943377364e-01  6.7432333255542232e-01  6.7322286970749823e-01  6.7212805625467631e-01  6.7103469131028248e-01  6.6995320195590402e-01  6.6887415484411994e-01  6.6780728309364690e-01  6.6674345062207618e-01  6.6568311387556789e-01  6.6462668765240851e-01  6.6358358433297959e-01  6.6254407605914778e-01  6.6150598676731587e-01  6.6048086885214674e-01  6.5945953655083378e-01  6.5845054615679255e-01  6.5744525013376964e-01  6.5644248228736934e-01  6.5545255954541037e-01  6.5446595570872079e-01  6.5348197765584637e-01  6.5250332393443167e-01  6.5153684767261166e-01  6.5057480738348383e-01  6.4962315477898835e-01  6.4867200368121025e-01  6.4772938983391493e-01  6.4678679209395040e-01  6.4584899859875777e-01  6.4491415610763658e-01  6.4398193365604994e-01  6.4306159094298754e-01  6.4214431282087403e-01  6.4124085194427460e-01  6.4034199273338877e-01  6.3945100839702296e-01  6.3856532335078664e-01  6.3768105477865222e-01  6.3680499847338323e-01  6.3593096260629123e-01  6.3506615875746464e-01  6.3420233317816810e-01  6.3334481643835772e-01  6.3248983499182954e-01  6.3163908566844940e-01  6.3079211848083405e-01  6.2995483757704429e-01  6.2912021208325763e-01  6.2828588114249717e-01  6.2745827774093976e-01  6.2663161073036122e-01  6.2581337504308010e-01  6.2499546606328205e-01  6.2418081249397495e-01  6.2336623400077928e-01  6.2255873836717479e-01  6.2175139937214019e-01  6.2094678930775238e-01  6.2014243069561392e-01  6.1933886941850524e-01  6.1854255034655248e-01  6.1774649054858788e-01  6.1695322056990809e-01  6.1616347686062078e-01  6.1538152740787455e-01  6.1460083016711564e-01  6.1382103261876098e-01  6.1304863967065126e-01  6.1227633584896579e-01  6.1151245919747754e-01  6.1074921981093344e-01  6.0999072917904629e-01  6.0923533046006229e-01  6.0848796637420322e-01  6.0774073205519896e-01  6.0699404417051739e-01  6.0625541294989427e-01  6.0551814567741036e-01  6.0478363006695945e-01  6.0405082821931988e-01  6.0332548744180969e-01  6.0260088411539003e-01  6.0187572971184444e-01  6.0115609009237680e-01  6.0043690773687008e-01  5.9972313367910246e-01  5.9900762295883492e-01  5.9828975535646134e-01  5.9757733344132058e-01  5.9686413861535992e-01  5.9615487479728646e-01  5.9544485539058511e-01  5.9473663186323156e-01  5.9403003259237586e-01  5.9332959515370309e-01  5.9262804717331996e-01  5.9192471144236303e-01  5.9122690795294086e-01  5.9052865671746313e-01  5.8983377781363910e-01  5.8913949758660134e-01  5.8844615277302681e-01  5.8775970361908803e-01  5.8707380118467167e-01  5.8638919431629333e-01  5.8570497198280380e-01  5.8502482914722898e-01  5.8434187834011242e-01  5.8365653496656367e-01  5.8297713147853458e-01  5.8229782028503685e-01  5.8162309150379565e-01  5.8094924818009153e-01  5.8027741741153915e-01  5.7960783285481621e-01  5.7894293080542092e-01  5.7827713098444444e-01  5.7761611774529587e-01  5.7695361001540957e-01  5.7629367017458255e-01  5.7563335152675277e-01  5.7497386492696123e-01  5.7431537534743027e-01  5.7366176918162626e-01  5.7300767942108988e-01  5.7235823163501931e-01  5.7170654179574432e-01  5.7105212712277842e-01  5.7040092181575963e-01  5.6974737552253985e-01  5.6909334944208723e-01  5.6843996795239626e-01  5.6779309062509753e-01  5.6714633712674356e-01  5.6649848072349074e-01  5.6585747913377749e-01  5.6521806992773371e-01  5.6457842734323227e-01  5.6394312756155940e-01  5.6330772376920923e-01  5.6267709100879615e-01  5.6204520079557696e-01  5.6141440547115506e-01  5.6078373665206360e-01  5.6015811631006740e-01  5.5953138788114198e-01  5.5890254673809658e-01  5.5827814752898763e-01  5.5765286697715444e-01  5.5702854871567498e-01  5.5640391092028241e-01  5.5578491795917018e-01  5.5516469012801939e-01  5.5454930837150562e-01  5.5393307402441072e-01  5.5331753314171528e-01  5.5270185719768583e-01  5.5208837232616070e-01  5.5147086354107577e-01  5.5085010696125480e-01  5.5023397680075459e-01  5.4961716902975311e-01  5.4900422054854392e-01  5.4839177050714583e-01  5.4778088962312055e-01  5.4717178557475399e-01  5.4656699192383351e-01  5.4596146962727687e-01  5.4535562807921500e-01  5.4475375564527639e-01  5.4415043059381929e-01  5.4354776377264824e-01  5.4294621960300060e-01  5.4234960396955867e-01  5.4175254343803103e-01  5.4115446849521631e-01  5.4056047706108135e-01  5.3996596687911813e-01  5.3937121213599737e-01  5.3878102049653798e-01  5.3819059354665344e-01  5.3759940553275609e-01  5.3701374333758156e-01  5.3642792710715581e-01  5.3584214951236608e-01  5.3525679296516970e-01  5.3467544913197140e-01  5.3409317610865725e-01  5.3351124759131863e-01  5.3293285157534653e-01  5.3235189180468534e-01  5.3177264982256656e-01  5.3119269739222952e-01  5.3061356792863579e-01  5.3003575023751415e-01  5.2946268278507269e-01  5.2888872592556568e-01  5.2831294376804627e-01  5.2774147326789900e-01  5.2716944263513632e-01  5.2659847462844045e-01  5.2602729303175655e-01  5.2546077052345341e-01  5.2489260941734805e-01  5.2432816596939613e-01  5.2376221257171085e-01  5.2319620407092504e-01  5.2262941722269440e-01  5.2206400318854296e-01  5.2149423351376767e-01  5.2092100854391366e-01  5.2035140645931199e-01  5.1978052308010247e-01  5.1921263154372888e-01  5.1864461707868392e-01  5.1807766997452087e-01  5.1751204324807676e-01  5.1695015285311652e-01  5.1638731691777795e-01  5.1582405878628212e-01  5.1526432279964862e-01  5.1470306660342724e-01  5.1414228340354262e-01  5.1358251722035353e-01  5.1302668306370391e-01  5.1246951116376205e-01  5.1191150604110380e-01  5.1135728403788661e-01  5.1080143097442021e-01  5.1024942750114477e-01  5.0969652354776862e-01  5.0914376371755232e-01  5.0859138635476409e-01  5.0804226414492726e-01  5.0749180652512094e-01  5.0694076544601785e-01  5.0639297387180460e-01  5.0584344077637777e-01  5.0529798200157749e-01  5.0475104344688693e-01  5.0420576190888233e-01  5.0366096983060227e-01  5.0312029576709916e-01  5.0257739301931048e-01  5.0203831964135304e-01  5.0149746818751773e-01  5.0095808142883402e-01  5.0041887649824834e-01  4.9988441551158086e-01  4.9934924846441237e-01  4.9881716416205168e-01  4.9828486234201458e-01  4.9775203454697725e-01  4.9722262016337931e-01  4.9669218859268166e-01  4.9616159428492329e-01  4.9563116158054105e-01  4.9510425152426851e-01  4.9457625624522433e-01  4.9404668758591669e-01  4.9351955371294925e-01  4.9299085245527197e-01  4.9246075745526391e-01  4.9193229997196025e-01  4.9140193945660188e-01  4.9087441769098972e-01  4.9034449324280699e-01  4.8981500931572064e-01  4.8928397355706671e-01  4.8875622137702673e-01  4.8822719245747392e-01  4.8769864850622624e-01  4.8717435869906106e-01  4.8664885112511519e-01  4.8612529796062232e-01  4.8560266389049228e-01  4.8508016234670670e-01  4.8456033209576105e-01  4.8403819352498939e-01  4.8351883411636720e-01  4.8299695277993487e-01  4.8247572836009744e-01  4.8195406967315407e-01  4.8143604321676103e-01  4.8091633577755255e-01  4.8039567482293999e-01  4.7988003714026073e-01  4.7936442324718098e-01  4.7884721802093133e-01  4.7833400648956004e-01  4.7781990198390867e-01  4.7730863712093913e-01  4.7679620884963780e-01  4.7628739605720960e-01  4.7577684859929020e-01  4.7526643894282100e-01  4.7475419050451695e-01  4.7424077733442799e-01  4.7372900044165817e-01  4.7321434301137349e-01  4.7269919933735155e-01  4.7218276767095557e-01  4.7166843388119234e-01  4.7115199861799623e-01  4.7063969056425142e-01  4.7012654588355751e-01  4.6961485299831612e-01  4.6910329488659924e-01  4.6859163438580337e-01  4.6808315379532012e-01  4.6757380280938526e-01  4.6706790640092666e-01  4.6656019785061420e-01  4.6605203133382128e-01  4.6554154999243391e-01  4.6503235087514305e-01  4.6451952213682313e-01  4.6400660758650059e-01  4.6349123323831187e-01  4.6297467241317819e-01  4.6245630750485828e-01  4.6193972187580840e-01  4.6141930691516542e-01  4.6089948189541174e-01  4.6037570752033236e-01  4.5984871632374164e-01  4.5932146515134398e-01  4.5878867345752761e-01  4.5825314371923698e-01  4.5771289583300262e-01  4.5716873501092786e-01  4.5662352428851577e-01  4.5607201374270306e-01  4.5551473113793117e-01  4.5495241622785187e-01  4.5438735512308981e-01  4.5381467309130902e-01  4.5323668725901950e-01  4.5264993016895894e-01  4.5205637242621999e-01  4.5145719847522242e-01  4.5084645572508081e-01  4.5022603433250502e-01  4.4959410967491231e-01  4.4895218927677383e-01  4.4829408095439982e-01  4.4762245093386394e-01  4.4693644117610815e-01  4.4623730964713693e-01  4.4551776834410151e-01  4.4477793281982547e-01  4.4401688472629397e-01  4.4322949194581557e-01  4.4241820585242214e-01  4.4157443716627048e-01  4.4070366747344575e-01  4.3979777278265625e-01  4.3885582009564522e-01  4.3787278031379950e-01  4.3684420390077500e-01  4.3575954818707219e-01  4.3461883875728619e-01  4.3341342522662940e-01  4.3216143668882656e-01  4.3082547457428760e-01  4.2940350681157807e-01  4.2788983894374211e-01  4.2626848104233667e-01  4.2453576386442593e-01  4.2264252397028512e-01  4.2057177236971793e-01  4.1829837432333400e-01  4.1579397280330344e-01  4.1295376785997789e-01  4.0975158702187797e-01  4.0589113881665734e-01  4.0134392264833957e-01  3.9544647752151518e-01  3.8503145765371721e-01  2.8351058228408293e-01  2.1814716770365508e-01  1.6994212878673726e-01  1.3339177186396048e-01  1.0433457047399020e-01  8.1583595459841285e-02  6.3858090365996392e-02  5.0128078104513085e-02  3.9391964535307133e-02  3.1094309517976249e-02  2.4726718185977336e-02  1.9680246133997794e-02  1.5887263243840502e-02  1.2970628372048600e-02  1.0652681508038669e-02  8.9321573716922009e-03  7.5982141630702585e-03  6.6410927608466664e-03  5.9250714239778820e-03  5.3979544152285954e-03  5.0371683779112360e-03  4.8047341045897411e-03  4.6686284942320270e-03  4.6014944921145672e-03  4.5820264898125442e-03  4.6014944993348732e-03  4.6686284524302636e-03  4.8047336560301142e-03  5.0371665984374663e-03  5.3979519350687948e-03  5.9250663228098861e-03  6.6410788753575268e-03  7.5981661140211024e-03  8.9320380666347461e-03  1.0652290609483426e-02  1.2969679979485655e-02  1.5884229744754282e-02  1.9678083639025481e-02  2.4716292235530058e-02  3.1022998007928976e-02  3.9415295197505307e-02  5.0061052759448374e-02  6.3993006579927098e-02  8.1741018395062717e-02  1.0394965743346944e-01  1.3295807226396886e-01  1.6867397837908124e-01  2.1414028823672732e-01  2.6987499019101152e-01  3.4915692468932341e-01  3.5470978600584097e-01  3.5832447569976311e-01  3.6106522932019564e-01  3.6295768970268993e-01  3.6450459694246296e-01  3.6574705002977859e-01  3.6679976030528821e-01  3.6769287349365010e-01  3.6846905511513917e-01  3.6913496452903299e-01  3.6971540797909480e-01  3.7021380889058292e-01  3.7065187828065604e-01  3.7103862750922306e-01  3.7137536811068661e-01  3.7166542434276123e-01  3.7192868190615652e-01  3.7215388591042847e-01  3.7234292720493917e-01  3.7250046366577388e-01  3.7262933496766065e-01  3.7273044876509487e-01  3.7280479665582028e-01  3.7286068912410186e-01  3.7289836428543199e-01  3.7291722309483988e-01  3.7291741439303688e-01  3.7290213659188309e-01  3.7287108892516363e-01  3.7283049866632945e-01  3.7277408171440457e-01  3.7270132087374358e-01  3.7261665062411098e-01  3.7252060536478920e-01  3.7241400313273959e-01  3.7229593794647275e-01  3.7217201375809800e-01  3.7203933978198650e-01  3.7189667110707736e-01  3.7174617333703452e-01  3.7158774252887511e-01  3.7142239740326555e-01  3.7124862492184435e-01  3.7106921587750158e-01  3.7088486679942279e-01  3.7069362131548284e-01  3.7049702249685695e-01  3.7029460470409836e-01  3.7008827455420618e-01  3.6987592381824808e-01  3.6965980686460342e-01  3.6943852816352907e-01  3.6921396163453873e-01  3.6898573304403776e-01  3.6875271394089626e-01  3.6851675500858766e-01  3.6827549799805942e-01  3.6803037394036786e-01  3.6778258751996468e-01  3.6752999577196144e-01  3.6727455182307367e-01  3.6701459254336133e-01  3.6675132193473059e-01  3.6648507906109012e-01  3.6621739738458259e-01  3.6594560691019140e-01  3.6567067685783911e-01  3.6539451751430185e-01  3.6511477204028769e-01  3.6483249493050546e-01  3.6454727049147023e-01  3.6426196515262144e-01  3.6397394651034187e-01  3.6368524627902971e-01  3.6339373934842523e-01  3.6310023129079799e-01  3.6280459711456536e-01  3.6250877273850229e-01  3.6220976347690570e-01  3.6190794258174841e-01  3.6160631428792112e-01  3.6130187163553151e-01  3.6099779723078890e-01  3.6069147135227009e-01  3.6038400913640145e-01  3.6007553197645925e-01  3.5976737876422876e-01  3.5945697138441146e-01  3.5914700368637287e-01  3.5883453055553310e-01  3.5852159542747331e-01  3.5820676631602721e-01  3.5789067436386707e-01  3.5757349027590035e-01  3.5725742252260190e-01  3.5693974821617752e-01  3.5662212426331441e-01  3.5630273144821162e-01  3.5598181442864951e-01  3.5566152249953475e-01  3.5533868466579260e-01  3.5501517227622603e-01  3.5469013722773562e-01  3.5436442136122820e-01  3.5403984580043685e-01  3.5371342952545615e-01  3.5338627231746383e-01  3.5305793623220877e-01  3.5273073954880463e-01  3.5240174205829311e-01  3.5207229057211892e-01  3.5174413353549572e-01  3.5141380715308856e-01  3.5108357694391418e-01  3.5075292538419200e-01  3.5042420038464706e-01  3.5009417179393604e-01  3.4976390567792620e-01  3.4943235161194686e-01  3.4910016406022321e-01  3.4876912002927724e-01  3.4843617520255854e-01  3.4810219264285802e-01  3.4776741665692479e-01  3.4743422276533231e-01  3.4709960650063099e-01  3.4676375563010825e-01  3.4642910355319123e-01  3.4609308973009989e-01  3.4575851188478673e-01  3.4542239296153660e-01  3.4508557378151034e-01  3.4474785608728192e-01  3.4441193446630358e-01  3.4407462815980538e-01  3.4373635163086447e-01  3.4339962360018428e-01  3.4306138332612912e-01  3.4272460127609300e-01  3.4238638540973027e-01  3.4204720389173671e-01  3.4170963470607696e-01  3.4137029804003088e-01  3.4103068386622537e-01  3.4069002869064169e-01  3.4035092772014541e-01  3.4000996686927071e-01  3.3966930747781776e-01  3.3932779698446169e-01  3.3898827181301106e-01  3.3864716615134111e-01  3.3830518796801845e-01  3.3796597041378135e-01  3.3762614200567459e-01  3.3728520783892613e-01  3.3694670891509343e-01  3.3660779076159020e-01  3.3626802130345218e-01  3.3592961927665255e-01  3.3559027188595575e-01  3.3525257462734409e-01  3.3491329853101787e-01  3.3457395290871400e-01  3.3423406837819269e-01  3.3389636846793092e-01  3.3355752954448398e-01  3.3321723298477018e-01  3.3287884447786042e-01  3.3253947854722665e-01  3.3220016346164316e-01  3.3186021958534029e-01  3.3152287804269687e-01  3.3118438806166883e-01  3.3084808450102504e-01  3.3051085264555974e-01  3.3017360225272813e-01  3.2983590720821643e-01  3.2949904233409566e-01  3.2915959471033918e-01  3.2881808577211935e-01  3.2847869675863378e-01  3.2813850553133073e-01  3.2779997537172229e-01  3.2746124630711715e-01  3.2712289745520823e-01  3.2678502206652943e-01  3.2644896789225997e-01  3.2611193432575730e-01  3.2577437155024486e-01  3.2543836648206598e-01  3.2510089168658840e-01  3.2476311052178913e-01  3.2442524937621037e-01  3.2408932958843811e-01  3.2375232485778010e-01  3.2341429976380948e-01  3.2307790035082734e-01  3.2274051931239922e-01  3.2240245659294159e-01  3.2206601004523783e-01  3.2172889347746536e-01  3.2139441912272032e-01  3.2105917165945819e-01  3.2072564454291003e-01  3.2039164834692130e-01  3.2005683946967661e-01  3.1972339610411304e-01  3.1938915716857230e-01  3.1905641139104773e-01  3.1872167720656236e-01  3.1838839486468701e-01  3.1805351436781965e-01  3.1771959021390489e-01  3.1738544807071750e-01  3.1705137990807886e-01  3.1671807940587704e-01  3.1638718288584045e-01  3.1605550501133617e-01  3.1572336912412768e-01  3.1539334802245789e-01  3.1506265450361604e-01  3.1473211691869868e-01  3.1440162418690532e-01  3.1407367059388136e-01  3.1374526982929274e-01  3.1341848928501131e-01  3.1309098525926993e-01  3.1276250624226959e-01  3.1243325124403087e-01  3.1210486887551392e-01  3.1177462141289475e-01  3.1144305048801718e-01  3.1111057049149260e-01  3.1077996080401116e-01  3.1044792970950413e-01  3.1011805701604250e-01  3.0978750264580174e-01  3.0945723620670756e-01  3.0912753632378487e-01  3.0879990488779596e-01  3.0847160674989288e-01  3.0814301091645296e-01  3.0781638786032900e-01  3.0748878128146501e-01  3.0716147135250721e-01  3.0683456517657515e-01  3.0651024358970480e-01  3.0618557172064009e-01  3.0586031929867474e-01  3.0553726027920125e-01  3.0521388350464257e-01  3.0489039229921583e-01  3.0456940821980716e-01  3.0424829500378464e-01  3.0392709559079834e-01  3.0360892799915995e-01  3.0329065391457416e-01  3.0297224836424758e-01  3.0265369025215932e-01  3.0233657247342571e-01  3.0201819204393565e-01  3.0169956823673677e-01  3.0138247550482988e-01  3.0106355227679943e-01  3.0074541418738598e-01  3.0042657977630799e-01  3.0010771141222303e-01  2.9978916842842362e-01  2.9947271966532946e-01  2.9915525426723044e-01  2.9883644603883935e-01  2.9851947158895697e-01  2.9820162926727711e-01  2.9788389142718980e-01  2.9756564341378616e-01  2.9724993068897448e-01  2.9693325031688222e-01  2.9661865002482057e-01  2.9630322912382279e-01  2.9598762526065309e-01  2.9567157229258317e-01  2.9535713848036838e-01  2.9504114207362597e-01  2.9472352962787784e-01  2.9440813449638342e-01  2.9409181451741617e-01  2.9377788981239411e-01  2.9346365796705426e-01  2.9314990016268128e-01  2.9283684080460948e-01  2.9252585820633181e-01  2.9221435633435666e-01  2.9190261431816505e-01  2.9159277735518957e-01  2.9128204111368711e-01  2.9097157877086516e-01  2.9066147650759872e-01  2.9035376719247563e-01  2.9004566623150752e-01  2.8973697176870239e-01  2.8943027268000043e-01  2.8912318485527211e-01  2.8881592277303