<?xml version="1.0"?>
<VTKFile type="UnstructuredGrid"  version="0.1"  >
<UnstructuredGrid>
<Piece  NumberOfPoints="5023" NumberOfCells="7844">
<Points>
<DataArray  type="Float64"  NumberOfComponents="3"  format="ascii">0 0.01 0  0 0 0  0.01 0 0  0.02 0 0  0.03 0 0  0.04 0 0  0.05 0 0  0.06 0 0  0.07000000000000001 0 0  0.08 0 0  0.09 0 0  0.1 0 0  0.11 0 0  0.12 0 0  0.13 0 0  0.14 0 0  0.15 0 0  0.16 0 0  0.17 0 0  0.18 0 0  0.19 0 0  0.2 0 0  0.21 0 0  0.22 0 0  0.23 0 0  0.24 0 0  0.25 0 0  0.26 0 0  0.27 0 0  0.28 0 0  0.29 0 0  0.3 0 0  0.31 0 0  0.32 0 0  0.33 0 0  0.34 0 0  0.35 0 0  0.36 0 0  0.37 0 0  0.38 0 0  0.39 0 0  0.4 0 0  0.41 0 0  0.42 0 0  0.43 0 0  0.44 0 0  0.45 0 0  0.46 0 0  0.47 0 0  0.48 0 0  0.49 0 0  0.5 0 0  0.51 0 0  0.52 0 0  0.53 0 0  0.54 0 0  0.55 0 0  0.5600000000000001 0 0  0.57 0 0  0.58 0 0  0.59 0 0  0.6 0 0  0.61 0 0  0.62 0 0  0.63 0 0  0.64 0 0  0.65 0 0  0.66 0 0  0.67 0 0  0.68 0 0  0.6899999999999999 0 0  0.7 0 0  0.71 0 0  0.72 0 0  0.73 0 0  0.74 0 0  0.75 0 0  0.76 0 0  0.77 0 0  0.78 0 0  0.79 0 0  0.8 0 0  0.8100000000000001 0 0  0.82 0 0  0.83 0 0  0.84 0 0  0.85 0 0  0.86 0 0  0.87 0 0  0.88 0 0  0.89 0 0  0.9 0 0  0.91 0 0  0.92 0 0  0.93 0 0  0.9399999999999999 0 0  0.95 0 0  0.96 0 0  0.97 0 0  0.98 0 0  0.99 0 0  1 0 0  1.01 0 0  1.02 0 0  1.03 0 0  1.04 0 0  1.05 0 0  1.06 0 0  1.07 0 0  1.08 0 0  1.09 0 0  1.1 0 0  1.11 0 0  1.12 0 0  1.13 0 0  1.14 0 0  1.15 0 0  1.16 0 0  1.17 0 0  1.18 0 0  1.19 0 0  1.2 0 0  1.21 0 0  1.22 0 0  1.23 0 0  1.24 0 0  1.25 0 0  1.26 0 0  1.27 0 0  1.28 0 0  1.29 0 0  1.3 0 0  1.31 0 0  1.32 0 0  1.33 0 0  1.34 0 0  1.35 0 0  1.36 0 0  1.37 0 0  1.38 0 0  1.39 0 0  1.4 0 0  1.41 0 0  1.42 0 0  1.43 0 0  1.44 0 0  1.45 0 0  1.46 0 0  1.47 0 0  1.48 0 0  1.49 0 0  1.5 0 0  1.51 0 0  1.52 0 0  1.53 0 0  1.54 0 0  1.55 0 0  1.56 0 0  1.57 0 0  1.58 0 0  1.59 0 0  1.6 0 0  1.61 0 0  1.62 0 0  1.63 0 0  1.64 0 0  1.65 0 0  1.66 0 0  1.67 0 0  1.68 0 0  1.69 0 0  1.7 0 0  1.71 0 0  1.72 0 0  1.73 0 0  1.74 0 0  1.75 0 0  1.76 0 0  1.77 0 0  1.78 0 0  1.79 0 0  1.8 0 0  1.81 0 0  1.82 0 0  1.83 0 0  1.84 0 0  1.85 0 0  1.86 0 0  1.87 0 0  1.88 0 0  1.89 0 0  1.9 0 0  1.91 0 0  1.92 0 0  1.93 0 0  1.94 0 0  1.95 0 0  1.96 0 0  1.97 0 0  1.98 0 0  1.99 0 0  2 0 0  2.01 0 0  2.02 0 0  2.03 0 0  2.04 0 0  2.05 0 0  2.06 0 0  2.07 0 0  2.08 0 0  2.09 0 0  2.1 0 0  2.11 0 0  2.12 0 0  2.13 0 0  2.14 0 0  2.15 0 0  2.16 0 0  2.17 0 0  2.18 0 0  2.19 0 0  2.2 0 0  2.21 0 0  2.22 0 0  2.23 0 0  2.24 0 0  2.25 0 0  2.26 0 0  2.27 0 0  2.28 0 0  2.29 0 0  2.3 0 0  2.31 0 0  2.32 0 0  2.33 0 0  2.34 0 0  2.35 0 0  2.36 0 0  2.37 0 0  2.38 0 0  2.39 0 0  2.4 0 0  2.41 0 0  2.42 0 0  2.43 0 0  2.44 0 0  2.45 0 0  2.46 0 0  2.47 0 0  2.48 0 0  2.49 0 0  2.5 0 0  2.51 0 0  2.52 0 0  2.53 0 0  2.54 0 0  2.55 0 0  2.56 0 0  2.57 0 0  2.58 0 0  2.59 0 0  2.6 0 0  2.61 0 0  2.62 0 0  2.63 0 0  2.64 0 0  2.65 0 0  2.66 0 0  2.67 0 0  2.68 0 0  2.69 0 0  2.7 0 0  2.71 0 0  2.72 0 0  2.73 0 0  2.74 0 0  2.75 0 0  2.76 0 0  2.77 0 0  2.78 0 0  2.79 0 0  2.8 0 0  2.81 0 0  2.82 0 0  2.83 0 0  2.84 0 0  2.85 0 0  2.86 0 0  2.87 0 0  2.88 0 0  2.89 0 0  2.9 0 0  2.91 0 0  2.92 0 0  2.93 0 0  2.94 0 0  2.95 0 0  2.96 0 0  2.97 0 0  2.98 0 0  2.99 0 0  3 0 0  3.01 0 0  3.02 0 0  3.03 0 0  3.04 0 0  3.05 0 0  3.06 0 0  3.07 0 0  3.08 0 0  3.09 0 0  3.1 0 0  3.11 0 0  3.12 0 0  3.13 0 0  3.14 0 0  3.15 0 0  3.16 0 0  3.17 0 0  3.18 0 0  3.19 0 0  3.2 0 0  3.21 0 0  3.22 0 0  3.23 0 0  3.24 0 0  3.25 0 0  3.26 0 0  3.27 0 0  3.28 0 0  3.29 0 0  3.3 0 0  3.31 0 0  3.32 0 0  3.33 0 0  3.34 0 0  3.35 0 0  3.36 0 0  3.37 0 0  3.38 0 0  3.39 0 0  3.4 0 0  3.41 0 0  3.42 0 0  3.43 0 0  3.44 0 0  3.45 0 0  3.46 0 0  3.47 0 0  3.48 0 0  3.49 0 0  3.5 0 0  3.51 0 0  3.52 0 0  3.53 0 0  3.54 0 0  3.55 0 0  3.56 0 0  3.57 0 0  3.58 0 0  3.59 0 0  3.6 0 0  3.61 0 0  3.62 0 0  3.63 0 0  3.64 0 0  3.65 0 0  3.66 0 0  3.67 0 0  3.68 0 0  3.69 0 0  3.7 0 0  3.71 0 0  3.72 0 0  3.73 0 0  3.74 0 0  3.75 0 0  3.76 0 0  3.77 0 0  3.78 0 0  3.79 0 0  3.8 0 0  3.81 0 0  3.82 0 0  3.83 0 0  3.84 0 0  3.85 0 0  3.86 0 0  3.87 0 0  3.88 0 0  3.89 0 0  3.9 0 0  3.91 0 0  3.92 0 0  3.93 0 0  3.94 0 0  3.95 0 0  3.96 0 0  3.97 0 0  3.98 0 0  3.99 0 0  4 0 0  4.01 0 0  4.02 0 0  4.03 0 0  4.04 0 0  4.05 0 0  4.06 0 0  4.07 0 0  4.08 0 0  4.09 0 0  4.1 0 0  4.11 0 0  4.12 0 0  4.13 0 0  4.14 0 0  4.15 0 0  4.16 0 0  4.17 0 0  4.18 0 0  4.19 0 0  4.2 0 0  4.21 0 0  4.22 0 0  4.23 0 0  4.24 0 0  4.25 0 0  4.26 0 0  4.27 0 0  4.28 0 0  4.29 0 0  4.3 0 0  4.31 0 0  4.32 0 0  4.33 0 0  4.34 0 0  4.35 0 0  4.36 0 0  4.37 0 0  4.38 0 0  4.39 0 0  4.4 0 0  4.41 0 0  4.42 0 0  4.43 0 0  4.44 0 0  4.45 0 0  4.46 0 0  4.47 0 0  4.48 0 0  4.49 0 0  4.5 0 0  4.51 -0.06282151815625525 0  4.52 -0.1255810390586241 0  4.53 -0.1882166266370302 0  4.54 -0.2506664671286087 0  4.55 -0.3128689300804606 0  4.56 -0.3747626291714468 0  4.57 -0.4362864827930868 0  4.58 -0.49737977432971 0  4.59 -0.5579822120784577 0  4.6 -0.6180339887498927 0  4.61 -0.6774758404905846 0  4.62 -0.7362491053693565 0  4.63 -0.7942957812695606 0  4.64 -0.8515585831301434 0  4.65 -0.9079809994790955 0  4.66 -0.9635073482034314 0  4.67 -1.018082831500742 0  4.68 -1.071653589957992 0  4.69 -1.124166755704263 0  4.7 -1.175570504584947 0  4.71 -1.225814107305953 0  4.72 -1.274847979497378 0  4.73 -1.322623730647306 0  4.74 -1.369094211857378 0  4.75 -1.414213562373095 0  4.76 -1.457937254842822 0  4.77 -1.500222139260917 0  4.78 -1.541026485551579 0  4.79 -1.580310024751381 0  4.8 -1.618033988749894 0  4.81 -1.654161148549122 0  4.82 -1.688655851004031 0  4.83 -1.721484054007887 0  4.84 -1.752613360087727 0  4.85 -1.782013048376735 0  4.86 -1.80965410493204 0  4.87 -1.835509251367963 0  4.88 -1.859552971776502 0  4.89 -1.88176153790845 0  4.9 -1.902113032590308 0  4.91 -1.920587371353886 0  4.92 -1.937166322257262 0  4.93 -1.951833523877494 0  4.94 -1.964574501457378 0  4.95 -1.975376681190276 0  4.96 -1.984229402628956 0  4.97 -1.99112392920616 0  4.98 -1.996053456856543 0  4.99 -1.999013120731463 0  5 -2 0  5.01 -1.999013120731463 0  5.02 -1.996053456856543 0  5.03 -1.99112392920616 0  5.04 -1.984229402628956 0  5.05 -1.975376681190276 0  5.06 -1.964574501457378 0  5.07 -1.951833523877494 0  5.08 -1.937166322257262 0  5.09 -1.920587371353886 0  5.1 -1.902113032590308 0  5.11 -1.88176153790845 0  5.12 -1.859552971776503 0  5.13 -1.835509251367963 0  5.14 -1.80965410493204 0  5.15 -1.782013048376735 0  5.16 -1.752613360087727 0  5.17 -1.721484054007888 0  5.18 -1.688655851004031 0  5.19 -1.654161148549123 0  5.2 -1.618033988749894 0  5.21 -1.580310024751381 0  5.22 -1.54102648555158 0  5.23 -1.500222139260918 0  5.24 -1.457937254842822 0  5.25 -1.414213562373095 0  5.26 -1.369094211857378 0  5.27 -1.322623730647306 0  5.28 -1.274847979497378 0  5.29 -1.225814107305953 0  5.3 -1.175570504584947 0  5.31 -1.124166755704263 0  5.32 -1.071653589957992 0  5.33 -1.018082831500742 0  5.34 -0.9635073482034312 0  5.35 -0.9079809994790962 0  5.36 -0.8515585831301434 0  5.37 -0.7942957812695605 0  5.38 -0.7362491053693571 0  5.39 -0.6774758404905852 0  5.4 -0.6180339887498926 0  5.41 -0.5579822120784582 0  5.42 -0.4973797743297105 0  5.43 -0.4362864827930872 0  5.44 -0.3747626291714474 0  5.45 -0.3128689300804611 0  5.46 -0.2506664671286091 0  5.47 -0.1882166266370305 0  5.48 -0.1255810390586245 0  5.49 -0.06282151815625558 0  5.5 -2.449293598294706e-16 0  5.51 0 0  5.52 0 0  5.53 0 0  5.54 0 0  5.55 0 0  5.56 0 0  5.57 0 0  5.58 0 0  5.59 0 0  5.6 0 0  5.61 0 0  5.62 0 0  5.63 0 0  5.64 0 0  5.65 0 0  5.66 0 0  5.67 0 0  5.68 0 0  5.69 0 0  5.7 0 0  5.71 0 0  5.72 0 0  5.73 0 0  5.74 0 0  5.75 0 0  5.76 0 0  5.77 0 0  5.78 0 0  5.79 0 0  5.8 0 0  5.81 0 0  5.82 0 0  5.83 0 0  5.84 0 0  5.85 0 0  5.86 0 0  5.87 0 0  5.88 0 0  5.89 0 0  5.9 0 0  5.91 0 0  5.92 0 0  5.93 0 0  5.94 0 0  5.95 0 0  5.96 0 0  5.97 0 0  5.98 0 0  5.99 0 0  6 0 0  6.01 0 0  6.02 0 0  6.03 0 0  6.04 0 0  6.05 0 0  6.06 0 0  6.07 0 0  6.08 0 0  6.09 0 0  6.1 0 0  6.11 0 0  6.12 0 0  6.13 0 0  6.14 0 0  6.15 0 0  6.16 0 0  6.17 0 0  6.18 0 0  6.19 0 0  6.2 0 0  6.21 0 0  6.22 0 0  6.23 0 0  6.24 0 0  6.25 0 0  6.26 0 0  6.27 0 0  6.28 0 0  6.29 0 0  6.3 0 0  6.31 0 0  6.32 0 0  6.33 0 0  6.34 0 0  6.35 0 0  6.36 0 0  6.37 0 0  6.38 0 0  6.39 0 0  6.4 0 0  6.41 0 0  6.42 0 0  6.43 0 0  6.44 0 0  6.45 0 0  6.46 0 0  6.47 0 0  6.48 0 0  6.49 0 0  6.5 0 0  6.51 0 0  6.52 0 0  6.53 0 0  6.54 0 0  6.55 0 0  6.56 0 0  6.57 0 0  6.58 0 0  6.59 0 0  6.6 0 0  6.61 0 0  6.62 0 0  6.63 0 0  6.64 0 0  6.65 0 0  6.66 0 0  6.67 0 0  6.68 0 0  6.69 0 0  6.7 0 0  6.71 0 0  6.72 0 0  6.73 0 0  6.74 0 0  6.75 0 0  6.76 0 0  6.77 0 0  6.78 0 0  6.79 0 0  6.8 0 0  6.81 0 0  6.82 0 0  6.83 0 0  6.84 0 0  6.85 0 0  6.86 0 0  6.87 0 0  6.88 0 0  6.89 0 0  6.9 0 0  6.91 0 0  6.92 0 0  6.93 0 0  6.94 0 0  6.95 0 0  6.96 0 0  6.97 0 0  6.98 0 0  6.99 0 0  7 0 0  7.01 0 0  7.02 0 0  7.03 0 0  7.04 0 0  7.05 0 0  7.06 0 0  7.07 0 0  7.08 0 0  7.09 0 0  7.1 0 0  7.11 0 0  7.12 0 0  7.13 0 0  7.14 0 0  7.15 0 0  7.16 0 0  7.17 0 0  7.18 0 0  7.19 0 0  7.2 0 0  7.21 0 0  7.22 0 0  7.23 0 0  7.24 0 0  7.25 0 0  7.26 0 0  7.27 0 0  7.28 0 0  7.29 0 0  7.3 0 0  7.31 0 0  7.32 0 0  7.33 0 0  7.34 0 0  7.35 0 0  7.36 0 0  7.37 0 0  7.38 0 0  7.39 0 0  7.4 0 0  7.41 0 0  7.42 0 0  7.43 0 0  7.44 0 0  7.45 0 0  7.46 0 0  7.47 0 0  7.48 0 0  7.49 0 0  7.5 0 0  7.51 0 0  7.52 0 0  7.53 0 0  7.54 0 0  7.55 0 0  7.56 0 0  7.57 0 0  7.58 0 0  7.59 0 0  7.6 0 0  7.61 0 0  7.62 0 0  7.63 0 0  7.64 0 0  7.65 0 0  7.66 0 0  7.67 0 0  7.68 0 0  7.69 0 0  7.7 0 0  7.71 0 0  7.72 0 0  7.73 0 0  7.74 0 0  7.75 0 0  7.76 0 0  7.77 0 0  7.78 0 0  7.79 0 0  7.8 0 0  7.81 0 0  7.82 0 0  7.83 0 0  7.84 0 0  7.85 0 0  7.86 0 0  7.87 0 0  7.88 0 0  7.89 0 0  7.9 0 0  7.91 0 0  7.92 0 0  7.93 0 0  7.94 0 0  7.95 0 0  7.96 0 0  7.97 0 0  7.98 0 0  7.99 0 0  8 0 0  8.01 0 0  8.02 0 0  8.029999999999999 0 0  8.039999999999999 0 0  8.0500000
[...]
<PointData  Scalars="f_1584"> 
<DataArray  type="Float64"  Name="f_1584"  format="ascii">1.0000000000000000e+00  1.0000000000000000e+00  9.9927574488316673e-01  9.9855145177660742e-01  9.9782703345658552e-01  9.9710245138670728e-01  9.9637770556475003e-01  9.9565275788748997e-01  9.9492760757362197e-01  9.9420218884323952e-01  9.9347650169443724e-01  9.9275053634746457e-01  9.9202429305369455e-01  9.9129774032095375e-01  9.9057089228768835e-01  9.8984369770676173e-01  9.8911615657570839e-01  9.8838831260806992e-01  9.8766015629778559e-01  9.8693162357550179e-01  9.8620271443820096e-01  9.8547341535849908e-01  9.8474369804806616e-01  9.8401352394503883e-01  9.8328289304446670e-01  9.8255199452284714e-01  9.8182063971571742e-01  9.8108882861891245e-01  9.8035659665402675e-01  9.7962394841176892e-01  9.7889085539386012e-01  9.7815731759642888e-01  9.7742333901408951e-01  9.7668892446228295e-01  9.7595405636968457e-01  9.7521873473260190e-01  9.7448310122250814e-01  9.7374698291112427e-01  9.7301036655135664e-01  9.7227327897036331e-01  9.7153572391074017e-01  9.7079766443171778e-01  9.7005910052990196e-01  9.6932012752044228e-01  9.6858073754717267e-01  9.6784089336313461e-01  9.6710059496452960e-01  9.6635981252998160e-01  9.6561854677593217e-01  9.6487676563605607e-01  9.6413447626271132e-01  9.6339163245820869e-01  9.6264823421723145e-01  9.6190451765329943e-01  9.6116034348565516e-01  9.6041570456204084e-01  9.5967057130807387e-01  9.5892494371885495e-01  9.5817885461114083e-01  9.5743231778242477e-01  9.5668522900137098e-01  9.5593758826385455e-01  9.5518945211775907e-01  9.5444079606952070e-01  9.5369163413828006e-01  9.5294196631858374e-01  9.5219193828268833e-01  9.5144142077759020e-01  9.5069041379961738e-01  9.4993893383243333e-01  9.4918694316724572e-01  9.4843444196253790e-01  9.4768143021310403e-01  9.4692789795909194e-01  9.4617386040602602e-01  9.4541932350521207e-01  9.4466427908101414e-01  9.4390874036474404e-01  9.4315270405729856e-01  9.4239613577695136e-01  9.4163903551951489e-01  9.4088142880045100e-01  9.4012330172085834e-01  9.3936485284372395e-01  9.3860586211321084e-01  9.3784632952439662e-01  9.3708627337535289e-01  9.3632567909206432e-01  9.3556456570306279e-01  9.3480293337931331e-01  9.3404077155095444e-01  9.3327808021391978e-01  9.3251488959400508e-01  9.3175118577830829e-01  9.3098716774972035e-01  9.3022261238307868e-01  9.2945751967367496e-01  9.2869188143545200e-01  9.2792568532346464e-01  9.2715889809550234e-01  9.2639151974607536e-01  9.2562380881760586e-01  9.2485560239333042e-01  9.2408688664799599e-01  9.2331764781824888e-01  9.2254788589846515e-01  9.2177762965728205e-01  9.2100688865998137e-01  9.2023554805752938e-01  9.1946360784453862e-01  9.1869131064540543e-01  9.1791842438429949e-01  9.1714493969030941e-01  9.1637090066473115e-01  9.1559630730157893e-01  9.1482140661182654e-01  9.1404596803196991e-01  9.1326999155758215e-01  9.1249355817179334e-01  9.1171661708137786e-01  9.1093912663435150e-01  9.1016110720541421e-01  9.0938256300716735e-01  9.0860349403613927e-01  9.0782392204662854e-01  9.0704385731785131e-01  9.0626325819844977e-01  9.0548207934192226e-01  9.0470055179845787e-01  9.0391845949694549e-01  9.0313579572562608e-01  9.0235253802985038e-01  9.0156868640542964e-01  9.0078427958916318e-01  8.9999929880853868e-01  8.9921395115116798e-01  8.9842810347628210e-01  8.9764176057247580e-01  8.9685486606856990e-01  8.9606741995990813e-01  8.9527945430915967e-01  8.9449097594355131e-01  8.9370197503560422e-01  8.9291244096300848e-01  8.9212233070028768e-01  8.9133164424099076e-01  8.9054059370682725e-01  8.8974901478202884e-01  8.8895691254393316e-01  8.8816418826382204e-01  8.8737084193694071e-01  8.8657701766107477e-01  8.8578270271885329e-01  8.8498786125614548e-01  8.8419249326728566e-01  8.8339659993037190e-01  8.8260018884406988e-01  8.8180340917028921e-01  8.8100601185733918e-01  8.8020799689885054e-01  8.7940943353579748e-01  8.7861031641636045e-01  8.7781063204034926e-01  8.7701038040133883e-01  8.7620979535325638e-01  8.7540866156920694e-01  8.7460697301909807e-01  8.7380471906640411e-01  8.7300189970716147e-01  8.7219854281499576e-01  8.7139466365488938e-01  8.7059027536989453e-01  8.6978537795686794e-01  8.6898000602912662e-01  8.6817404787530550e-01  8.6736750348975444e-01  8.6656041176645582e-01  8.6575278019055202e-01  8.6494457362245369e-01  8.6413579205690971e-01  8.6332665085421123e-01  8.6251690014074001e-01  8.6170657097612491e-01  8.6089567870009664e-01  8.6008422330844647e-01  8.5927235924692713e-01  8.5845992388201142e-01  8.5764691720772479e-01  8.5683334247844700e-01  8.5601921653229385e-01  8.5520452223623022e-01  8.5438931300266774e-01  8.5357355542038760e-01  8.5275724948575793e-01  8.5194046019293723e-01  8.5112307496384321e-01  8.5030509379199470e-01  8.4948654262659296e-01  8.4866743699140368e-01  8.4784796637664051e-01  8.4702784977161794e-01  8.4620708717034832e-01  8.4538575986791897e-01  8.4456391034803424e-01  8.4374153504336802e-01  8.4291863395010203e-01  8.4209532022620026e-01  8.4127142625446927e-01  8.4044695202865605e-01  8.3962187059781934e-01  8.3879619845143927e-01  8.3796997074529234e-01  8.3714319909638568e-01  8.3631589549964236e-01  8.3548805426728223e-01  8.3465965403927922e-01  8.3383069481082550e-01  8.3300119160639929e-01  8.3217115046894707e-01  8.3134055770884718e-01  8.3050941626673758e-01  8.2967768687354049e-01  8.2884538380937056e-01  8.2801251554858901e-01  8.2717908208770474e-01  8.2634515493718563e-01  8.2551064320603285e-01  8.2467554688786504e-01  8.2383988753783610e-01  8.2300370234181763e-01  8.2216687182997528e-01  8.2132939599728350e-01  8.2049146426455077e-01  8.1965288327866836e-01  8.1881365303204845e-01  8.1797402209371750e-01  8.1713385663698335e-01  8.1629316008770514e-01  8.1545185924511276e-01  8.1460995410409287e-01  8.1376747264374871e-01  8.1292442757910643e-01  8.1208081445241787e-01  8.1123663325921080e-01  8.1039206076818537e-01  8.0954689365574517e-01  8.0870113191540915e-01  8.0785477701492425e-01  8.0700784927543279e-01  8.0616032581641139e-01  8.0531219117014130e-01  8.0446345820898157e-01  8.0361412692745038e-01  8.0276422135801329e-01  8.0191377324023849e-01  8.0106276390003717e-01  8.0021119333337398e-01  7.9935918268049022e-01  7.9850656391323060e-01  7.9765333702510333e-01  7.9679947780284521e-01  7.9594500346464947e-01  7.9508994293649893e-01  7.9423429767898579e-01  7.9337804499494902e-01  7.9252118487752177e-01  7.9166394972451315e-01  7.9080608902239213e-01  7.8994760276513409e-01  7.8908850993731594e-01  7.8822880478373880e-01  7.8736844155516983e-01  7.8650742024521569e-01  7.8564599914379818e-01  7.8478396250913240e-01  7.8392131033331292e-01  7.8305820857732289e-01  7.8219439919861311e-01  7.8132988218881616e-01  7.8046490877940977e-01  7.7959923388072416e-01  7.7873285748706511e-01  7.7786592353622996e-01  7.7699840400290421e-01  7.7613028073827928e-01  7.7526155373579531e-01  7.7439231323373581e-01  7.7352247445654698e-01  7.7265203740050414e-01  7.7178098946491935e-01  7.7090931050101397e-01  7.7003702150381415e-01  7.6916417592777808e-01  7.6829071558092377e-01  7.6741664045844582e-01  7.6654215109608004e-01  7.6566703235072542e-01  7.6479128421559084e-01  7.6391490003956031e-01  7.6303789856831250e-01  7.6216024198300414e-01  7.6128191426842462e-01  7.6040292395481757e-01  7.5952327103619544e-01  7.5864298221438720e-01  7.5776209254763593e-01  7.5688058119862822e-01  7.5599844816295769e-01  7.5511582892977325e-01  7.5423253224347697e-01  7.5334855809692414e-01  7.5246387927515423e-01  7.5157851346440330e-01  7.5069249384276404e-01  7.4980582200417922e-01  7.4891847156988811e-01  7.4803044253227757e-01  7.4714199582715723e-01  7.4625284910624012e-01  7.4536300236283393e-01  7.4447247629556668e-01  7.4358126331607877e-01  7.4268930738378913e-01  7.4179660849162277e-01  7.4090347263747980e-01  7.4000968381920862e-01  7.3911522398820539e-01  7.3822002601316272e-01  7.3732408988629583e-01  7.3642744765889900e-01  7.3553013751437768e-01  7.3463201445384929e-01  7.3373307847095182e-01  7.3283361961247107e-01  7.3193339246537170e-01  7.3103244582093707e-01  7.3013082206579905e-01  7.2922852119583881e-01  7.2832560865829121e-01  7.2742190432800391e-01  7.2651740819731947e-01  7.2561219905006324e-01  7.2470633819302566e-01  7.2379973150198018e-01  7.2289237897207792e-01  7.2198437685793060e-01  7.2107557307991088e-01  7.2016599145777838e-01  7.1925560057972782e-01  7.1834440044058179e-01  7.1743254798603973e-01  7.1651977426000912e-01  7.1560607925478625e-01  7.1469185258495038e-01  7.1377671383872954e-01  7.1286066300573592e-01  7.1194401802502472e-01  7.1102651749248380e-01  7.1010816139749711e-01  7.0918922063512890e-01  7.0826925679533392e-01  7.0734826986843480e-01  7.0642636084562993e-01  7.0550351222355245e-01  7.0457973829041676e-01  7.0365504665295053e-01  7.0272937024973303e-01  7.0180270907343323e-01  7.0087512918277572e-01  6.9994659742568588e-01  6.9901748066027047e-01  6.9808733816061919e-01  6.9715616991789153e-01  6.9622395276614091e-01  6.9529063675091030e-01  6.9435612865550933e-01  6.9342042846745522e-01  6.9248404840368116e-01  6.9154645529201231e-01  6.9060764274320863e-01  6.8966753166081685e-01  6.8872612203595063e-01  6.8778352188886249e-01  6.8683974136812820e-01  6.8589474565138409e-01  6.8494853473027240e-01  6.8400134676696245e-01  6.8305279368263960e-01  6.8210285543246452e-01  6.8115148100428113e-01  6.8019867038264548e-01  6.7924440805823427e-01  6.7828880791206880e-01  6.7733177733253180e-01  6.7637331630812525e-01  6.7541339041951520e-01  6.7445201447269487e-01  6.7348888118566197e-01  6.7252390127451978e-01  6.7155687560665034e-01  6.7058780416401309e-01  6.6961759742238403e-01  6.6864508291871294e-01  6.6767026062922963e-01  6.6669412458159960e-01  6.6571575108640346e-01  6.6473514011569623e-01  6.6375231425285008e-01  6.6276719909776916e-01  6.6177938571804862e-01  6.6078898146989529e-01  6.5979566694197544e-01  6.5879944211245034e-01  6.5780097280834060e-01  6.5679929481839650e-01  6.5579440811657841e-01  6.5478681681371875e-01  6.5377557682498300e-01  6.5276068810219423e-01  6.5174202455564867e-01  6.5071977025681638e-01  6.4969318816367050e-01  6.4866227824143086e-01  6.4762723326240756e-01  6.4658800683405249e-01  6.4554399681077312e-01  6.4449520313601039e-01  6.4344007663717806e-01  6.4237817887514337e-01  6.4130839159704522e-01  6.4023071470569271e-01  6.3914830061683403e-01  6.3805733943838272e-01  6.3695804455412386e-01  6.3584806977590502e-01  6.3472741498050567e-01  6.3359500879226116e-01  6.3244983996021531e-01  6.3128955333065040e-01  6.3011416795790420e-01  6.2891759997706653e-01  6.2769984915626986e-01  6.2645607378008383e-01  6.2518572208920875e-01  6.2387805681537600e-01  6.2253310459016786e-01  6.2112773049993142e-01  6.1964664751813114e-01  6.1800632256472987e-01  6.1620675234820899e-01  6.1417953280496806e-01  6.1152285717210852e-01  6.0366653136149773e-01  5.9872362171855664e-01  5.9514806356139349e-01  5.9226070622732685e-01  5.9005864794003271e-01  5.8825938599324634e-01  5.8677914814696153e-01  5.8564102197731682e-01  5.8471225035165797e-01  5.8397310401380642e-01  5.8338793618231533e-01  5.8291197730109678e-01  5.8254129198188920e-01  5.8223233072648106e-01  5.8199445021505480e-01  5.8180514128193417e-01  5.8166212071230294e-01  5.8154829840356215e-01  5.8146163818252328e-01  5.8139041017907456e-01  5.8133644901761039e-01  5.8129424373882410e-01  5.8126296044939363e-01  5.8123834070233427e-01  5.8121979928009337e-01  5.8120548513238235e-01  5.8119501391151007e-01  5.8118697879221226e-01  5.8118068095591668e-01  5.8117594103963444e-01  5.8117257956524837e-01  5.8116985431804535e-01  5.8116779598298396e-01  5.8116623835327619e-01  5.8116507069128343e-01  5.8116423009514651e-01  5.8116359643501780e-01  5.8116311903359763e-01  5.8116275761923142e-01  5.8116248656531788e-01  5.8116228756950039e-01  5.8116214204735639e-01  5.8116202696888775e-01  5.8116193990553910e-01  5.8116187696475130e-01  5.8116182842193920e-01  5.8116179162328163e-01  5.8116176223217120e-01  5.8116173890962264e-01  5.8116171618571555e-01  5.8116169230130155e-01  5.8116166702756100e-01  5.8116163893611983e-01  5.8116160185191335e-01  5.8116155430089800e-01  5.8116149015357532e-01  5.8116140532225102e-01  5.8116128955521718e-01  5.8116114359921056e-01  5.8116094416713948e-01  5.8116067266225091e-01  5.8116031048112093e-01  5.8115983190678688e-01  5.8115919613741074e-01  5.8115835249697489e-01  5.8115719044957559e-01  5.8115564848833057e-01  5.8115364928316782e-01  5.8115104711183718e-01  5.8114746083857050e-01  5.8114275127612602e-01  5.8113635968898991e-01  5.8112804712802246e-01  5.8111777082372440e-01  5.8110354248139062e-01  5.8108509327283886e-01  5.8106098420231123e-01  5.8102979115255537e-01  5.8098774818519838e-01  5.8093402694068041e-01  5.8086297787848085e-01  5.8077524257374435e-01  5.8066049131108954e-01  5.8051852614794741e-01  5.8033388439129474e-01  5.8009583786037044e-01  5.7979090248019938e-01  5.7942559414803863e-01  5.7895863029167338e-01  5.7837503285079506e-01  5.7762432828209032e-01  5.7668018691770995e-01  5.7552398479233724e-01  5.7408735683012291e-01  5.7230977074018807e-01  5.7004204009685577e-01  5.6706795947402944e-01  5.6338390183945330e-01  5.5828415590233704e-01  5.5017894795655631e-01  5.4749574399006273e-01  5.4523127790209913e-01  5.4338556278832628e-01  5.4169795108357455e-01  5.4013891104999778e-01  5.3863600992289873e-01  5.3719421883411023e-01  5.3581353884134331e-01  5.3445706874558874e-01  5.3313186623379305e-01  5.3183793172895177e-01  5.3056503941292654e-01  5.2931072332873541e-01  5.2806964302632098e-01  5.2684179867239755e-01  5.2562459322300781e-01  5.2441804673518755e-01  5.2322091772564838e-01  5.2203289710938983e-01  5.2085295356257888e-01  5.1968108717555817e-01  5.1851526091620359e-01  5.1735551569052263e-01  5.1620140537915205e-01  5.1505295193474598e-01  5.1390775454980209e-01  5.1276718762943851e-01  5.1163125122499986e-01  5.1049862185160455e-01  5.0936927065616111e-01  5.0824302465510862e-01  5.0711988389422535e-01  5.0599900961505018e-01  5.0488026207834646e-01  5.0376388425034635e-01  5.0264987615907675e-01  5.0153775615482932e-01  5.0042741033352467e-01  4.9931872101106889e-01  4.9821168820571693e-01  4.9710554780653138e-01  4.9600083547258433e-01  4.9489755122486717e-01  4.9379550652388743e-01  4.9269461264831960e-01  4.9159474162847488e-01  4.9049589347693118e-01  4.8939789750883816e-01  4.8830077396078481e-01  4.8720425563533815e-01  4.8610826606037993e-01  4.8501277695020012e-01  4.8391778830971521e-01  4.8282310265786504e-01  4.8172886922816927e-01  4.8063506177762921e-01  4.7954163706980063e-01  4.7844859510970911e-01  4.7735578387738004e-01  4.7626316430404209e-01  4.7517070208997336e-01  4.7407839723748102e-01  4.7298613305074788e-01  4.7189394106159832e-01  4.7080182127089287e-01  4.6970971357341840e-01  4.6861759557948518e-01  4.6752541994237395e-01  4.6643318666144346e-01  4.6534087057479606e-01  4.6424842680248640e-01  4.6315585534258158e-01  4.6206314152826838e-01  4.6097021254988918e-01  4.5987706840447845e-01  4.5878372949566926e-01  4.5769010302763541e-01  4.5659618899766152e-01  4.5550200268899377e-01  4.5440751679548702e-01  4.5331271337146045e-01  4.5221759241294912e-01  4.5112216064328176e-01  4.5002637100594794e-01  4.4893022349842643e-01  4.4783368099166737e-01  4.4673673865040747e-01  4.4563934787941412e-01  4.4454153841700006e-01  4.4344328516989678e-01  4.4234458813436672e-01  4.4124555026813844e-01  4.4014604739891389e-01  4.3904607952109415e-01  4.3794562710587553e-01  4.3684469984019952e-01  4.3574325483887633e-01  4.3464129209668911e-01  4.3353877299442217e-01  4.3243571777842027e-01  4.3133211221115975e-01  4.3022798591867406e-01  4.2912334094088644e-01  4.2801817727374675e-01  4.2691257995651954e-01  4.2580639692617428e-01  4.2469960459274148e-01  4.2359220300555844e-01  4.2248419215771116e-01  4.2137560014864722e-01  4.2026641474332777e-01  4.1915661277143629e-01  4.1804619422559397e-01  4.1693538999639196e-01  4.1582394601810052e-01  4.1471186228426055e-01  4.1359914800489284e-01  4.1248579449109979e-01  4.1137174916989511e-01  4.1025701203434700e-01  4.0914186474753461e-01  4.0802611540113759e-01  4.0690974457657964e-01  4.0579268134861612e-01  4.0467492570996527e-01  4.0355650463793952e-01  4.0243745131085956e-01  4.0131764927191937e-01  4.0019709851524343e-01  3.9907599588390347e-01  3.9795411553549714e-01  3.9683145746116733e-01  3.9570832978372211e-01  3.9458457102675226e-01  3.9346018146368467e-01  3.9233505299690113e-01  3.9120918562025042e-01  3.9008259986112320e-01  3.8895533006834898e-01  3.8782740588811904e-01  3.8669881239012555e-01  3.8556951730589706e-01  3.8443952063069903e-01  3.8330883604209082e-01  3.8217745048385704e-01  3.8104530085254434e-01  3.7991238714266412e-01  3.7877871392762130e-01  3.7764428677514000e-01  3.7650937761531200e-01  3.7537368866085385e-01  3.7423725703220095e-01  3.7310010546797540e-01  3.7196223396237854e-01  3.7082385395641365e-01  3.6968470229631162e-01  3.6854475690611488e-01  3.6740403562916102e-01  3.6626253845707107e-01  3.6512029164895043e-01  3.6397735417852184e-01  3.6283363994101508e-01  3.6168914893018000e-01  3.6054415162733833e-01  3.5939838158976900e-01  3.5825183880887229e-01  3.5710452634599638e-01  3.5595645629014527e-01  3.5480762458292719e-01  3.5365800725203139e-01  3.5250759388795422e-01  3.5135638448233136e-01  3.5020460518499541e-01  3.4905204020214259e-01  3.4789868952787550e-01  3.4674453866832600e-01  3.4558954419528126e-01  3.4443404783419079e-01  3.4327775784617826e-01  3.4212066492402293e-01  3.4096274850885971e-01  3.3980400859487753e-01  3.3864450467346047e-01  3.3748425091178375e-01  3.3632324560651072e-01  3.3516147347922787e-01  3.3399898099258674e-01  3.3283576814183236e-01  3.3167181417668173e-01  3.3050710362542213e-01  3.2934159938109103e-01  3.2817530143806495e-01  3.2700822213226066e-01  3.2584036819123047e-01  3.2467203372044856e-01  3.2350288831989998e-01  3.2233293198039692e-01  3.2116218124219215e-01  3.1999064166338909e-01  3.1881820931276300e-01  3.1764488418108222e-01  3.1647101056373755e-01  3.1529634117161182e-01  3.1412087599405591e-01  3.1294484634026121e-01  3.1176799362979318e-01  3.1059033493195792e-01  3.0941177694594929e-01  3.0823231966490655e-01  3.0705214796735297e-01  3.0587123372752961e-01  3.0468945840097994e-01  3.0350682197850537e-01  3.0232346153342948e-01  3.0113930213751938e-01  2.9995434378555008e-01  2.9876856239477728e-01  2.9758188955890297e-01  2.9639470141748253e-01  2.9520672676565440e-01  2.9401795670831415e-01  2.9282838723174154e-01  2.9163801833030545e-01  2.9044688116976314e-01  2.8925497012898443e-01  2.8806225181428557e-01  2.8686876142157325e-01  2.8567443751705779e-01  2.8447928009418560e-01  2.8328335293293760e-01  2.8208663928557287e-01  2.8088941333321776e-01  2.7969130422392890e-01  2.7849231194945856e-01  2.7729241766994195e-01  2.7609163756833827e-01  2.7489009302031930e-01  2.7368778401875321e-01  2.7248472715658156e-01  2.7128093107652768e-01  2.7007631135054988e-01  2.6887086797284165e-01  2.6766462669271862e-01  2.6645758963392246e-01  2.6524969878267596e-01  2.6404095413323408e-01  2.6283157165314053e-01  2.6162130478926393e-01  2.6041015353531632e-01  2.5919830772910718e-01  2.5798556957355206e-01  2.5677193905910811e-01  2.5555743224260025e-01  2.5434207516525087e-01  2.5312609886135712e-01  2.5190935118117047e-01  2.5069183211912843e-01  2.4947354674642430e-01  2.4825444689895138e-01  2.4703450378506170e-01  2.4581369508886300e-01  2.4459203709280511e-01  2.4336952978910120e-01  2.4214619774387183e-01  2.4092201201296734e-01  2.3969698299646436e-01  2.3847111068517093e-01  2.3724464013140659e-01  2.3601735645421060e-01  2.3478925964749189e-01  2.3356038781487323e-01  2.3233067818153200e-01  2.3110012972511584e-01  2.2986874243702082e-01  2.2863649804423913e-01  2.2740342171854247e-01  2.2616952021785910e-01  2.2493477230643