<?xml version="1.0"?>
<VTKFile type="UnstructuredGrid"  version="0.1"  >
<UnstructuredGrid>
<Piece  NumberOfPoints="5023" NumberOfCells="7844">
<Points>
<DataArray  type="Float64"  NumberOfComponents="3"  format="ascii">0 0.01 0  0 0 0  0.01 0 0  0.02 0 0  0.03 0 0  0.04 0 0  0.05 0 0  0.06 0 0  0.07000000000000001 0 0  0.08 0 0  0.09 0 0  0.1 0 0  0.11 0 0  0.12 0 0  0.13 0 0  0.14 0 0  0.15 0 0  0.16 0 0  0.17 0 0  0.18 0 0  0.19 0 0  0.2 0 0  0.21 0 0  0.22 0 0  0.23 0 0  0.24 0 0  0.25 0 0  0.26 0 0  0.27 0 0  0.28 0 0  0.29 0 0  0.3 0 0  0.31 0 0  0.32 0 0  0.33 0 0  0.34 0 0  0.35 0 0  0.36 0 0  0.37 0 0  0.38 0 0  0.39 0 0  0.4 0 0  0.41 0 0  0.42 0 0  0.43 0 0  0.44 0 0  0.45 0 0  0.46 0 0  0.47 0 0  0.48 0 0  0.49 0 0  0.5 0 0  0.51 0 0  0.52 0 0  0.53 0 0  0.54 0 0  0.55 0 0  0.5600000000000001 0 0  0.57 0 0  0.58 0 0  0.59 0 0  0.6 0 0  0.61 0 0  0.62 0 0  0.63 0 0  0.64 0 0  0.65 0 0  0.66 0 0  0.67 0 0  0.68 0 0  0.6899999999999999 0 0  0.7 0 0  0.71 0 0  0.72 0 0  0.73 0 0  0.74 0 0  0.75 0 0  0.76 0 0  0.77 0 0  0.78 0 0  0.79 0 0  0.8 0 0  0.8100000000000001 0 0  0.82 0 0  0.83 0 0  0.84 0 0  0.85 0 0  0.86 0 0  0.87 0 0  0.88 0 0  0.89 0 0  0.9 0 0  0.91 0 0  0.92 0 0  0.93 0 0  0.9399999999999999 0 0  0.95 0 0  0.96 0 0  0.97 0 0  0.98 0 0  0.99 0 0  1 0 0  1.01 0 0  1.02 0 0  1.03 0 0  1.04 0 0  1.05 0 0  1.06 0 0  1.07 0 0  1.08 0 0  1.09 0 0  1.1 0 0  1.11 0 0  1.12 0 0  1.13 0 0  1.14 0 0  1.15 0 0  1.16 0 0  1.17 0 0  1.18 0 0  1.19 0 0  1.2 0 0  1.21 0 0  1.22 0 0  1.23 0 0  1.24 0 0  1.25 0 0  1.26 0 0  1.27 0 0  1.28 0 0  1.29 0 0  1.3 0 0  1.31 0 0  1.32 0 0  1.33 0 0  1.34 0 0  1.35 0 0  1.36 0 0  1.37 0 0  1.38 0 0  1.39 0 0  1.4 0 0  1.41 0 0  1.42 0 0  1.43 0 0  1.44 0 0  1.45 0 0  1.46 0 0  1.47 0 0  1.48 0 0  1.49 0 0  1.5 0 0  1.51 0 0  1.52 0 0  1.53 0 0  1.54 0 0  1.55 0 0  1.56 0 0  1.57 0 0  1.58 0 0  1.59 0 0  1.6 0 0  1.61 0 0  1.62 0 0  1.63 0 0  1.64 0 0  1.65 0 0  1.66 0 0  1.67 0 0  1.68 0 0  1.69 0 0  1.7 0 0  1.71 0 0  1.72 0 0  1.73 0 0  1.74 0 0  1.75 0 0  1.76 0 0  1.77 0 0  1.78 0 0  1.79 0 0  1.8 0 0  1.81 0 0  1.82 0 0  1.83 0 0  1.84 0 0  1.85 0 0  1.86 0 0  1.87 0 0  1.88 0 0  1.89 0 0  1.9 0 0  1.91 0 0  1.92 0 0  1.93 0 0  1.94 0 0  1.95 0 0  1.96 0 0  1.97 0 0  1.98 0 0  1.99 0 0  2 0 0  2.01 0 0  2.02 0 0  2.03 0 0  2.04 0 0  2.05 0 0  2.06 0 0  2.07 0 0  2.08 0 0  2.09 0 0  2.1 0 0  2.11 0 0  2.12 0 0  2.13 0 0  2.14 0 0  2.15 0 0  2.16 0 0  2.17 0 0  2.18 0 0  2.19 0 0  2.2 0 0  2.21 0 0  2.22 0 0  2.23 0 0  2.24 0 0  2.25 0 0  2.26 0 0  2.27 0 0  2.28 0 0  2.29 0 0  2.3 0 0  2.31 0 0  2.32 0 0  2.33 0 0  2.34 0 0  2.35 0 0  2.36 0 0  2.37 0 0  2.38 0 0  2.39 0 0  2.4 0 0  2.41 0 0  2.42 0 0  2.43 0 0  2.44 0 0  2.45 0 0  2.46 0 0  2.47 0 0  2.48 0 0  2.49 0 0  2.5 0 0  2.51 0 0  2.52 0 0  2.53 0 0  2.54 0 0  2.55 0 0  2.56 0 0  2.57 0 0  2.58 0 0  2.59 0 0  2.6 0 0  2.61 0 0  2.62 0 0  2.63 0 0  2.64 0 0  2.65 0 0  2.66 0 0  2.67 0 0  2.68 0 0  2.69 0 0  2.7 0 0  2.71 0 0  2.72 0 0  2.73 0 0  2.74 0 0  2.75 0 0  2.76 0 0  2.77 0 0  2.78 0 0  2.79 0 0  2.8 0 0  2.81 0 0  2.82 0 0  2.83 0 0  2.84 0 0  2.85 0 0  2.86 0 0  2.87 0 0  2.88 0 0  2.89 0 0  2.9 0 0  2.91 0 0  2.92 0 0  2.93 0 0  2.94 0 0  2.95 0 0  2.96 0 0  2.97 0 0  2.98 0 0  2.99 0 0  3 0 0  3.01 0 0  3.02 0 0  3.03 0 0  3.04 0 0  3.05 0 0  3.06 0 0  3.07 0 0  3.08 0 0  3.09 0 0  3.1 0 0  3.11 0 0  3.12 0 0  3.13 0 0  3.14 0 0  3.15 0 0  3.16 0 0  3.17 0 0  3.18 0 0  3.19 0 0  3.2 0 0  3.21 0 0  3.22 0 0  3.23 0 0  3.24 0 0  3.25 0 0  3.26 0 0  3.27 0 0  3.28 0 0  3.29 0 0  3.3 0 0  3.31 0 0  3.32 0 0  3.33 0 0  3.34 0 0  3.35 0 0  3.36 0 0  3.37 0 0  3.38 0 0  3.39 0 0  3.4 0 0  3.41 0 0  3.42 0 0  3.43 0 0  3.44 0 0  3.45 0 0  3.46 0 0  3.47 0 0  3.48 0 0  3.49 0 0  3.5 0 0  3.51 0 0  3.52 0 0  3.53 0 0  3.54 0 0  3.55 0 0  3.56 0 0  3.57 0 0  3.58 0 0  3.59 0 0  3.6 0 0  3.61 0 0  3.62 0 0  3.63 0 0  3.64 0 0  3.65 0 0  3.66 0 0  3.67 0 0  3.68 0 0  3.69 0 0  3.7 0 0  3.71 0 0  3.72 0 0  3.73 0 0  3.74 0 0  3.75 0 0  3.76 0 0  3.77 0 0  3.78 0 0  3.79 0 0  3.8 0 0  3.81 0 0  3.82 0 0  3.83 0 0  3.84 0 0  3.85 0 0  3.86 0 0  3.87 0 0  3.88 0 0  3.89 0 0  3.9 0 0  3.91 0 0  3.92 0 0  3.93 0 0  3.94 0 0  3.95 0 0  3.96 0 0  3.97 0 0  3.98 0 0  3.99 0 0  4 0 0  4.01 0 0  4.02 0 0  4.03 0 0  4.04 0 0  4.05 0 0  4.06 0 0  4.07 0 0  4.08 0 0  4.09 0 0  4.1 0 0  4.11 0 0  4.12 0 0  4.13 0 0  4.14 0 0  4.15 0 0  4.16 0 0  4.17 0 0  4.18 0 0  4.19 0 0  4.2 0 0  4.21 0 0  4.22 0 0  4.23 0 0  4.24 0 0  4.25 0 0  4.26 0 0  4.27 0 0  4.28 0 0  4.29 0 0  4.3 0 0  4.31 0 0  4.32 0 0  4.33 0 0  4.34 0 0  4.35 0 0  4.36 0 0  4.37 0 0  4.38 0 0  4.39 0 0  4.4 0 0  4.41 0 0  4.42 0 0  4.43 0 0  4.44 0 0  4.45 0 0  4.46 0 0  4.47 0 0  4.48 0 0  4.49 0 0  4.5 0 0  4.51 -0.06282151815625525 0  4.52 -0.1255810390586241 0  4.53 -0.1882166266370302 0  4.54 -0.2506664671286087 0  4.55 -0.3128689300804606 0  4.56 -0.3747626291714468 0  4.57 -0.4362864827930868 0  4.58 -0.49737977432971 0  4.59 -0.5579822120784577 0  4.6 -0.6180339887498927 0  4.61 -0.6774758404905846 0  4.62 -0.7362491053693565 0  4.63 -0.7942957812695606 0  4.64 -0.8515585831301434 0  4.65 -0.9079809994790955 0  4.66 -0.9635073482034314 0  4.67 -1.018082831500742 0  4.68 -1.071653589957992 0  4.69 -1.124166755704263 0  4.7 -1.175570504584947 0  4.71 -1.225814107305953 0  4.72 -1.274847979497378 0  4.73 -1.322623730647306 0  4.74 -1.369094211857378 0  4.75 -1.414213562373095 0  4.76 -1.457937254842822 0  4.77 -1.500222139260917 0  4.78 -1.541026485551579 0  4.79 -1.580310024751381 0  4.8 -1.618033988749894 0  4.81 -1.654161148549122 0  4.82 -1.688655851004031 0  4.83 -1.721484054007887 0  4.84 -1.752613360087727 0  4.85 -1.782013048376735 0  4.86 -1.80965410493204 0  4.87 -1.835509251367963 0  4.88 -1.859552971776502 0  4.89 -1.88176153790845 0  4.9 -1.902113032590308 0  4.91 -1.920587371353886 0  4.92 -1.937166322257262 0  4.93 -1.951833523877494 0  4.94 -1.964574501457378 0  4.95 -1.975376681190276 0  4.96 -1.984229402628956 0  4.97 -1.99112392920616 0  4.98 -1.996053456856543 0  4.99 -1.999013120731463 0  5 -2 0  5.01 -1.999013120731463 0  5.02 -1.996053456856543 0  5.03 -1.99112392920616 0  5.04 -1.984229402628956 0  5.05 -1.975376681190276 0  5.06 -1.964574501457378 0  5.07 -1.951833523877494 0  5.08 -1.937166322257262 0  5.09 -1.920587371353886 0  5.1 -1.902113032590308 0  5.11 -1.88176153790845 0  5.12 -1.859552971776503 0  5.13 -1.835509251367963 0  5.14 -1.80965410493204 0  5.15 -1.782013048376735 0  5.16 -1.752613360087727 0  5.17 -1.721484054007888 0  5.18 -1.688655851004031 0  5.19 -1.654161148549123 0  5.2 -1.618033988749894 0  5.21 -1.580310024751381 0  5.22 -1.54102648555158 0  5.23 -1.500222139260918 0  5.24 -1.457937254842822 0  5.25 -1.414213562373095 0  5.26 -1.369094211857378 0  5.27 -1.322623730647306 0  5.28 -1.274847979497378 0  5.29 -1.225814107305953 0  5.3 -1.175570504584947 0  5.31 -1.124166755704263 0  5.32 -1.071653589957992 0  5.33 -1.018082831500742 0  5.34 -0.9635073482034312 0  5.35 -0.9079809994790962 0  5.36 -0.8515585831301434 0  5.37 -0.7942957812695605 0  5.38 -0.7362491053693571 0  5.39 -0.6774758404905852 0  5.4 -0.6180339887498926 0  5.41 -0.5579822120784582 0  5.42 -0.4973797743297105 0  5.43 -0.4362864827930872 0  5.44 -0.3747626291714474 0  5.45 -0.3128689300804611 0  5.46 -0.2506664671286091 0  5.47 -0.1882166266370305 0  5.48 -0.1255810390586245 0  5.49 -0.06282151815625558 0  5.5 -2.449293598294706e-16 0  5.51 0 0  5.52 0 0  5.53 0 0  5.54 0 0  5.55 0 0  5.56 0 0  5.57 0 0  5.58 0 0  5.59 0 0  5.6 0 0  5.61 0 0  5.62 0 0  5.63 0 0  5.64 0 0  5.65 0 0  5.66 0 0  5.67 0 0  5.68 0 0  5.69 0 0  5.7 0 0  5.71 0 0  5.72 0 0  5.73 0 0  5.74 0 0  5.75 0 0  5.76 0 0  5.77 0 0  5.78 0 0  5.79 0 0  5.8 0 0  5.81 0 0  5.82 0 0  5.83 0 0  5.84 0 0  5.85 0 0  5.86 0 0  5.87 0 0  5.88 0 0  5.89 0 0  5.9 0 0  5.91 0 0  5.92 0 0  5.93 0 0  5.94 0 0  5.95 0 0  5.96 0 0  5.97 0 0  5.98 0 0  5.99 0 0  6 0 0  6.01 0 0  6.02 0 0  6.03 0 0  6.04 0 0  6.05 0 0  6.06 0 0  6.07 0 0  6.08 0 0  6.09 0 0  6.1 0 0  6.11 0 0  6.12 0 0  6.13 0 0  6.14 0 0  6.15 0 0  6.16 0 0  6.17 0 0  6.18 0 0  6.19 0 0  6.2 0 0  6.21 0 0  6.22 0 0  6.23 0 0  6.24 0 0  6.25 0 0  6.26 0 0  6.27 0 0  6.28 0 0  6.29 0 0  6.3 0 0  6.31 0 0  6.32 0 0  6.33 0 0  6.34 0 0  6.35 0 0  6.36 0 0  6.37 0 0  6.38 0 0  6.39 0 0  6.4 0 0  6.41 0 0  6.42 0 0  6.43 0 0  6.44 0 0  6.45 0 0  6.46 0 0  6.47 0 0  6.48 0 0  6.49 0 0  6.5 0 0  6.51 0 0  6.52 0 0  6.53 0 0  6.54 0 0  6.55 0 0  6.56 0 0  6.57 0 0  6.58 0 0  6.59 0 0  6.6 0 0  6.61 0 0  6.62 0 0  6.63 0 0  6.64 0 0  6.65 0 0  6.66 0 0  6.67 0 0  6.68 0 0  6.69 0 0  6.7 0 0  6.71 0 0  6.72 0 0  6.73 0 0  6.74 0 0  6.75 0 0  6.76 0 0  6.77 0 0  6.78 0 0  6.79 0 0  6.8 0 0  6.81 0 0  6.82 0 0  6.83 0 0  6.84 0 0  6.85 0 0  6.86 0 0  6.87 0 0  6.88 0 0  6.89 0 0  6.9 0 0  6.91 0 0  6.92 0 0  6.93 0 0  6.94 0 0  6.95 0 0  6.96 0 0  6.97 0 0  6.98 0 0  6.99 0 0  7 0 0  7.01 0 0  7.02 0 0  7.03 0 0  7.04 0 0  7.05 0 0  7.06 0 0  7.07 0 0  7.08 0 0  7.09 0 0  7.1 0 0  7.11 0 0  7.12 0 0  7.13 0 0  7.14 0 0  7.15 0 0  7.16 0 0  7.17 0 0  7.18 0 0  7.19 0 0  7.2 0 0  7.21 0 0  7.22 0 0  7.23 0 0  7.24 0 0  7.25 0 0  7.26 0 0  7.27 0 0  7.28 0 0  7.29 0 0  7.3 0 0  7.31 0 0  7.32 0 0  7.33 0 0  7.34 0 0  7.35 0 0  7.36 0 0  7.37 0 0  7.38 0 0  7.39 0 0  7.4 0 0  7.41 0 0  7.42 0 0  7.43 0 0  7.44 0 0  7.45 0 0  7.46 0 0  7.47 0 0  7.48 0 0  7.49 0 0  7.5 0 0  7.51 0 0  7.52 0 0  7.53 0 0  7.54 0 0  7.55 0 0  7.56 0 0  7.57 0 0  7.58 0 0  7.59 0 0  7.6 0 0  7.61 0 0  7.62 0 0  7.63 0 0  7.64 0 0  7.65 0 0  7.66 0 0  7.67 0 0  7.68 0 0  7.69 0 0  7.7 0 0  7.71 0 0  7.72 0 0  7.73 0 0  7.74 0 0  7.75 0 0  7.76 0 0  7.77 0 0  7.78 0 0  7.79 0 0  7.8 0 0  7.81 0 0  7.82 0 0  7.83 0 0  7.84 0 0  7.85 0 0  7.86 0 0  7.87 0 0  7.88 0 0  7.89 0 0  7.9 0 0  7.91 0 0  7.92 0 0  7.93 0 0  7.94 0 0  7.95 0 0  7.96 0 0  7.97 0 0  7.98 0 0  7.99 0 0  8 0 0  8.01 0 0  8.02 0 0  8.029999999999999 0 0  8.039999999999999 0 0  8.0500000
[...]
<PointData  Scalars="f_872"> 
<DataArray  type="Float64"  Name="f_872"  format="ascii">1.0000000000000000e+00  1.0000000000000000e+00  9.9999999999967015e-01  9.9999999999933942e-01  9.9999999999900602e-01  9.9999999999867017e-01  9.9999999999833100e-01  9.9999999999798794e-01  9.9999999999764078e-01  9.9999999999728784e-01  9.9999999999692935e-01  9.9999999999656541e-01  9.9999999999619593e-01  9.9999999999581979e-01  9.9999999999543721e-01  9.9999999999504674e-01  9.9999999999464895e-01  9.9999999999424427e-01  9.9999999999383204e-01  9.9999999999341094e-01  9.9999999999298073e-01  9.9999999999254097e-01  9.9999999999209011e-01  9.9999999999162770e-01  9.9999999999115385e-01  9.9999999999067257e-01  9.9999999999017886e-01  9.9999999998967271e-01  9.9999999998915434e-01  9.9999999998862399e-01  9.9999999998808031e-01  9.9999999998752309e-01  9.9999999998695199e-01  9.9999999998636757e-01  9.9999999998576794e-01  9.9999999998515354e-01  9.9999999998452838e-01  9.9999999998388645e-01  9.9999999998322697e-01  9.9999999998255062e-01  9.9999999998185696e-01  9.9999999998114397e-01  9.9999999998041134e-01  9.9999999997966205e-01  9.9999999997889599e-01  9.9999999997811084e-01  9.9999999997730649e-01  9.9999999997648092e-01  9.9999999997563416e-01  9.9999999997476385e-01  9.9999999997386968e-01  9.9999999997294831e-01  9.9999999997199995e-01  9.9999999997103495e-01  9.9999999997004663e-01  9.9999999996903288e-01  9.9999999996799260e-01  9.9999999996692546e-01  9.9999999996583200e-01  9.9999999996471234e-01  9.9999999996355970e-01  9.9999999996237376e-01  9.9999999996115629e-01  9.9999999995990552e-01  9.9999999995862077e-01  9.9999999995730249e-01  9.9999999995595901e-01  9.9999999995457978e-01  9.9999999995316602e-01  9.9999999995171740e-01  9.9999999995023026e-01  9.9999999994870237e-01  9.9999999994713396e-01  9.9999999994552202e-01  9.9999999994386823e-01  9.9999999994217059e-01  9.9999999994042743e-01  9.9999999993863853e-01  9.9999999993680377e-01  9.9999999993491728e-01  9.9999999993297917e-01  9.9999999993098987e-01  9.9999999992894750e-01  9.9999999992687139e-01  9.9999999992473698e-01  9.9999999992254462e-01  9.9999999992029243e-01  9.9999999991797706e-01  9.9999999991559907e-01  9.9999999991315836e-01  9.9999999991064925e-01  9.9999999990807165e-01  9.9999999990542732e-01  9.9999999990271382e-01  9.9999999989995658e-01  9.9999999989712240e-01  9.9999999989421151e-01  9.9999999989121868e-01  9.9999999988814081e-01  9.9999999988496691e-01  9.9999999988169730e-01  9.9999999987837196e-01  9.9999999987496124e-01  9.9999999987146204e-01  9.9999999986786814e-01  9.9999999986417987e-01  9.9999999986039823e-01  9.9999999985652344e-01  9.9999999985252830e-01  9.9999999984841292e-01  9.9999999984422305e-01  9.9999999983990473e-01  9.9999999983545529e-01  9.9999999983087828e-01  9.9999999982617349e-01  9.9999999982139542e-01  9.9999999981648424e-01  9.9999999981143972e-01  9.9999999980627852e-01  9.9999999980098453e-01  9.9999999979554044e-01  9.9999999978995113e-01  9.9999999978421128e-01  9.9999999977832144e-01  9.9999999977228138e-01  9.9999999976609433e-01  9.9999999975974041e-01  9.9999999975320486e-01  9.9999999974655529e-01  9.9999999973971465e-01  9.9999999973268006e-01  9.9999999972543374e-01  9.9999999971797493e-01  9.9999999971030629e-01  9.9999999970241826e-01  9.9999999969438569e-01  9.9999999968615072e-01  9.9999999967771325e-01  9.9999999966903985e-01  9.9999999966013076e-01  9.9999999965098785e-01  9.9999999964161190e-01  9.9999999963199171e-01  9.9999999962211594e-01  9.9999999961195074e-01  9.9999999960149666e-01  9.9999999959085373e-01  9.9999999957992824e-01  9.9999999956871977e-01  9.9999999955715690e-01  9.9999999954523910e-01  9.9999999953303553e-01  9.9999999952053509e-01  9.9999999950770191e-01  9.9999999949453588e-01  9.9999999948102569e-01  9.9999999946717377e-01  9.9999999945306950e-01  9.9999999943853168e-01  9.9999999942355999e-01  9.9999999940817974e-01  9.9999999939237560e-01  9.9999999937612327e-01  9.9999999935942296e-01  9.9999999934245110e-01  9.9999999932501960e-01  9.9999999930712147e-01  9.9999999928872374e-01  9.9999999926982674e-01  9.9999999925042760e-01  9.9999999923053418e-01  9.9999999921013705e-01  9.9999999918923610e-01  9.9999999916785143e-01  9.9999999914584348e-01  9.9999999912321191e-01  9.9999999909997184e-01  9.9999999907612036e-01  9.9999999905159020e-01  9.9999999902638115e-01  9.9999999900073222e-01  9.9999999897431502e-01  9.9999999894716296e-01  9.9999999891926206e-01  9.9999999889061308e-01  9.9999999886140190e-01  9.9999999883137436e-01  9.9999999880053003e-01  9.9999999876883383e-01  9.9999999873631051e-01  9.9999999870288159e-01  9.9999999866861644e-01  9.9999999863343014e-01  9.9999999859732203e-01  9.9999999856037869e-01  9.9999999852236687e-01  9.9999999848328613e-01  9.9999999844312548e-01  9.9999999840190956e-01  9.9999999835997166e-01  9.9999999831671560e-01  9.9999999827214048e-01  9.9999999822634067e-01  9.9999999817938701e-01  9.9999999813123530e-01  9.9999999808188555e-01  9.9999999803156669e-01  9.9999999797983230e-01  9.9999999792668171e-01  9.9999999787198401e-01  9.9999999781577942e-01  9.9999999775807691e-01  9.9999999769887071e-01  9.9999999763814984e-01  9.9999999757588887e-01  9.9999999751196045e-01  9.9999999744636348e-01  9.9999999737907430e-01  9.9999999731010514e-01  9.9999999723936106e-01  9.9999999716680821e-01  9.9999999709220633e-01  9.9999999701559472e-01  9.9999999693691011e-01  9.9999999685615193e-01  9.9999999677352913e-01  9.9999999668861161e-01  9.9999999660139749e-01  9.9999999651187843e-01  9.9999999642015647e-01  9.9999999632562497e-01  9.9999999622828362e-01  9.9999999612887192e-01  9.9999999602637279e-01  9.9999999592078537e-01  9.9999999581323062e-01  9.9999999570296305e-01  9.9999999558997232e-01  9.9999999547374374e-01  9.9999999535427553e-01  9.9999999523156280e-01  9.9999999510562765e-01  9.9999999497632153e-01  9.9999999484364377e-01  9.9999999470856360e-01  9.9999999456972444e-01  9.9999999442712495e-01  9.9999999428064767e-01  9.9999999413036289e-01  9.9999999397587302e-01  9.9999999381706073e-01  9.9999999365383274e-01  9.9999999348618751e-01  9.9999999331404565e-01  9.9999999313758059e-01  9.9999999295649977e-01  9.9999999277080209e-01  9.9999999258137184e-01  9.9999999238659343e-01  9.9999999218646451e-01  9.9999999198052181e-01  9.9999999176891829e-01  9.9999999155160946e-01  9.9999999132845951e-01  9.9999999109904170e-01  9.9999999086335301e-01  9.9999999062366618e-01  9.9999999037713150e-01  9.9999999012374630e-01  9.9999998986346272e-01  9.9999998959605241e-01  9.9999998932059353e-01  9.9999998903708354e-01  9.9999998874850149e-01  9.9999998845184723e-01  9.9999998814711588e-01  9.9999998783623911e-01  9.9999998751540520e-01  9.9999998718460936e-01  9.9999998684708113e-01  9.9999998649884170e-01  9.9999998613988739e-01  9.9999998577204974e-01  9.9999998539465085e-01  9.9999998500700427e-01  9.9999998460910577e-01  9.9999998420212100e-01  9.9999998378430832e-01  9.9999998335566431e-01  9.9999998291551173e-01  9.9999998246343491e-01  9.9999998199919504e-01  9.9999998152362224e-01  9.9999998103518539e-01  9.9999998053388051e-01  9.9999998002357970e-01  9.9999997949925079e-01  9.9999997896088821e-01  9.9999997840787491e-01  9.9999997784041117e-01  9.9999997725673051e-01  9.9999997665638940e-01  9.9999997603893409e-01  9.9999997540435770e-01  9.9999997475236557e-01  9.9999997408363372e-01  9.9999997339704327e-01  9.9999997269258911e-01  9.9999997197371915e-01  9.9999997123416851e-01  9.9999997047392841e-01  9.9999996969124494e-01  9.9999996888669374e-01  9.9999996806016322e-01  9.9999996721115003e-01  9.9999996633803501e-01  9.9999996544080738e-01  9.9999996452822848e-01  9.9999996358937071e-01  9.9999996262422342e-01  9.9999996163263449e-01  9.9999996061372598e-01  9.9999995956394860e-01  9.9999995848328949e-01  9.9999995738382186e-01  9.9999995625557159e-01  9.9999995509744433e-01  9.9999995390529650e-01  9.9999995267911290e-01  9.9999995141893183e-01  9.9999995012595755e-01  9.9999994879183063e-01  9.9999994741653786e-01  9.9999994601354969e-01  9.9999994456901287e-01  9.9999994308518736e-01  9.9999994156291783e-01  9.9999994000219483e-01  9.9999993840569890e-01  9.9999993676195742e-01  9.9999993507095097e-01  9.9999993333554182e-01  9.9999993155892808e-01  9.9999992973388607e-01  9.9999992786040193e-01  9.9999992594331377e-01  9.9999992397132498e-01  9.9999992194549536e-01  9.9999991986152803e-01  9.9999991771940744e-01  9.9999991552869605e-01  9.9999991326810078e-01  9.9999991093759732e-01  9.9999990856512244e-01  9.9999990611970491e-01  9.9999990360130941e-01  9.9999990103352487e-01  9.9999989839402725e-01  9.9999989568277914e-01  9.9999989292059399e-01  9.9999989006912460e-01  9.9999988712833543e-01  9.9999988410352769e-01  9.9999988099168580e-01  9.9999987779321575e-01  9.9999987450773886e-01  9.9999987112700794e-01  9.9999986765099413e-01  9.9999986408266839e-01  9.9999986041914879e-01  9.9999985669490687e-01  9.9999985286490012e-01  9.9999984892908977e-01  9.9999984488177074e-01  9.9999984071672898e-01  9.9999983642283352e-01  9.9999983200002829e-01  9.9999982750089345e-01  9.9999982286629296e-01  9.9999981809402194e-01  9.9999981317287645e-01  9.9999980810281497e-01  9.9999980289144186e-01  9.9999979753868551e-01  9.9999979203748979e-01  9.9999978638781306e-01  9.9999978061444816e-01  9.9999977467360235e-01  9.9999976856005524e-01  9.9999976226780540e-01  9.9999975579677680e-01  9.9999974913852185e-01  9.9999974230625543e-01  9.9999973528893837e-01  9.9999972808651316e-01  9.9999972069107568e-01  9.9999971310702063e-01  9.9999970529066073e-01  9.9999969722958326e-01  9.9999968890118629e-01  9.9999968030538111e-01  9.9999967155674485e-01  9.9999966250527894e-01  9.9999965315086770e-01  9.9999964361768157e-01  9.9999963378870693e-01  9.9999962366381046e-01  9.9999961324210529e-01  9.9999960251473718e-01  9.9999959144151407e-01  9.9999958003091105e-01  9.9999956824852421e-01  9.9999955609425628e-01  9.9999954364673682e-01  9.9999953080042969e-01  9.9999951755522365e-01  9.9999950396213877e-01  9.9999948992587973e-01  9.9999947544625045e-01  9.9999946050533495e-01  9.9999944512813299e-01  9.9999942924337493e-01  9.9999941285092697e-01  9.9999939597933207e-01  9.9999937862125454e-01  9.9999936072915319e-01  9.9999934230283138e-01  9.9999932318021723e-01  9.9999930332078346e-01  9.9999928267125782e-01  9.9999926123132366e-01  9.9999923930872014e-01  9.9999921656768065e-01  9.9999919301835705e-01  9.9999916850278547e-01  9.9999914302061332e-01  9.9999911652006079e-01  9.9999908892152500e-01  9.9999906011626305e-01  9.9999903009752733e-01  9.9999899853944618e-01  9.9999896544146660e-01  9.9999893059046863e-01  9.9999889397668607e-01  9.9999885503465991e-01  9.9999881379441879e-01  9.9999876903918017e-01  9.9999872005254287e-01  9.9999866312173080e-01  9.9999859824093151e-01  9.9999852278598922e-01  9.9999841888723340e-01  9.9999804605015752e-01  9.9999777496980102e-01  9.9999755608022611e-01  9.9999736981993992e-01  9.9999721616184978e-01  9.9999708553484190e-01  9.9999697480578587e-01  9.9999688539104814e-01  9.9999681080557101e-01  9.9999675044687208e-01  9.9999670163837506e-01  9.9999666160272727e-01  9.9999662999683014e-01  9.9999660352765618e-01  9.9999658300950756e-01  9.9999656661771186e-01  9.9999655415740474e-01  9.9999654421640216e-01  9.9999653662212895e-01  9.9999653037235292e-01  9.9999652562988539e-01  9.9999652191743915e-01  9.9999651916190979e-01  9.9999651699220826e-01  9.9999651535712819e-01  9.9999651409449419e-01  9.9999651317044003e-01  9.9999651246120624e-01  9.9999651190524397e-01  9.9999651148677038e-01  9.9999651118994537e-01  9.9999651094928199e-01  9.9999651076750473e-01  9.9999651062993822e-01  9.9999651052681027e-01  9.9999651045256521e-01  9.9999651039659709e-01  9.9999651035443016e-01  9.9999651032250736e-01  9.9999651029856584e-01  9.9999651028098868e-01  9.9999651026813485e-01  9.9999651025796998e-01  9.9999651025027936e-01  9.9999651024472003e-01  9.9999651024043235e-01  9.9999651023718250e-01  9.9999651023458636e-01  9.9999651023252634e-01  9.9999651023051894e-01  9.9999651022840919e-01  9.9999651022617686e-01  9.9999651022369551e-01  9.9999651022042024e-01  9.9999651021621994e-01  9.9999651021055391e-01  9.9999651020306080e-01  9.9999651019283531e-01  9.9999651017994273e-01  9.9999651016232705e-01  9.9999651013834479e-01  9.9999651010635282e-01  9.9999651006407952e-01  9.9999651000791956e-01  9.9999650993339606e-01  9.9999650983074284e-01  9.9999650969452636e-01  9.9999650951790964e-01  9.9999650928801354e-01  9.9999650897113912e-01  9.9999650855498512e-01  9.9999650799008588e-01  9.9999650725530853e-01  9.9999650634677761e-01  9.9999650508831095e-01  9.9999650345611035e-01  9.9999650132190721e-01  9.9999649855910722e-01  9.9999649483032549e-01  9.9999649006185498e-01  9.9999648374418404e-01  9.9999647593314112e-01  9.9999646568289569e-01  9.9999645297472828e-01  9.9999643634659963e-01  9.9999641481307266e-01  9.9999638705490346e-01  9.9999635365364470e-01  9.9999631041283998e-01  9.9999625559608629e-01  9.9999618376039645e-01  9.9999609138791501e-01  9.9999597615104385e-01  9.9999582843052381e-01  9.9999563765229860e-01  9.9999538091196949e-01  9.9999501758351184e-01  9.9999454409569111e-01  9.9999381412956601e-01  9.9999248396853824e-01  9.9999195246526196e-01  9.9999148586355802e-01  9.9999108425798333e-01  9.9999070188106465e-01  9.9999033340869758e-01  9.9998996886915925e-01  9.9998960543560522e-01  9.9998924311176218e-01  9.9998887974835160e-01  9.9998851232133623e-01  9.9998814083050358e-01  9.9998776307411097e-01  9.9998737889888234e-01  9.9998698832412081e-01  9.9998659134845391e-01  9.9998618730447886e-01  9.9998577644840658e-01  9.9998535726935489e-01  9.9998492942282102e-01  9.9998449157776792e-01  9.9998404373151295e-01  9.9998358592106307e-01  9.9998311817438590e-01  9.9998263854086766e-01  9.9998214738905833e-01  9.9998164703079129e-01  9.9998113290877511e-01  9.9998060501892183e-01  9.9998006476634282e-01  9.9997951117777761e-01  9.9997894297614087e-01  9.9997836015562558e-01  9.9997776426552520e-01  9.9997715544634269e-01  9.9997653012491339e-01  9.9997588829575257e-01  9.9997522969646224e-01  9.9997455440561178e-01  9.9997386161939639e-01  9.9997315133241416e-01  9.9997242859494972e-01  9.9997168632460665e-01  9.9997092451298630e-01  9.9997014251069505e-01  9.9996934061427423e-01  9.9996851660660946e-01  9.9996767047962065e-01  9.9996680057918652e-01  9.9996590751934289e-01  9.9996499057273058e-01  9.9996405083389306e-01  9.9996308778051124e-01  9.9996210140590713e-01  9.9996109556378066e-01  9.9996006200691778e-01  9.9995899979630953e-01  9.9995790784264138e-01  9.9995678613327355e-01  9.9995563482791106e-01  9.9995445275820227e-01  9.9995323783119217e-01  9.9995199003210677e-01  9.9995072143623309e-01  9.9994941727178510e-01  9.9994807752502235e-01  9.9994670209142567e-01  9.9994528988447573e-01  9.9994383635451189e-01  9.9994234148555816e-01  9.9994082050924160e-01  9.9993925782309456e-01  9.9993765340562069e-01  9.9993601710585367e-01  9.9993432923584669e-01  9.9993258977093513e-01  9.9993081660940175e-01  9.9992898838807764e-01  9.9992710508874683e-01  9.9992517623082633e-01  9.9992319877355651e-01  9.9992116942692522e-01  9.9991908816828190e-01  9.9991696045546641e-01  9.9991477741493340e-01  9.9991253903297805e-01  9.9991024095638281e-01  9.9990788122245922e-01  9.9990545474827663e-01  9.9990296574420112e-01  9.9990040891762844e-01  9.9989778424805287e-01  9.9989510971033191e-01  9.9989236306573137e-01  9.9988954428281096e-01  9.9988665064376581e-01  9.9988368303374153e-01  9.9988063213425815e-01  9.9987749791454206e-01  9.9987427384348260e-01  9.9987096219062566e-01  9.9986756032536717e-01  9.9986407239868402e-01  9.9986049647139952e-01  9.9985683251807711e-01  9.9985309522550248e-01  9.9984925354829246e-01  9.9984530399338378e-01  9.9984124261015583e-01  9.9983706935078787e-01  9.9983278650503316e-01  9.9982838985462763e-01  9.9982387188418298e-01  9.9981923253863525e-01  9.9981451654601183e-01  9.9980966946856553e-01  9.9980469125577176e-01  9.9979958044450068e-01  9.9979433276241325e-01  9.9978893034700278e-01  9.9978337313862808e-01  9.9977772292641143e-01  9.9977193151888133e-01  9.9976599419283274e-01  9.9975988824473649e-01  9.9975361360599402e-01  9.9974717144042557e-01  9.9974056737465145e-01  9.9973376435798234e-01  9.9972676232975188e-01  9.9971961011718846e-01  9.9971223632939199e-01  9.9970464086769661e-01  9.9969690898815700e-01  9.9968898764910463e-01  9.9968087586142984e-01  9.9967253198804251e-01  9.9966395595320978e-01  9.9965514398291022e-01  9.9964610425585720e-01  9.9963683814301663e-01  9.9962734056544944e-01  9.9961759155017949e-01  9.9960759103047314e-01  9.9959733398228623e-01  9.9958681200284849e-01  9.9957598620322541e-01  9.9956485649730586e-01  9.9955341064775682e-01  9.9954164953137403e-01  9.9952968084094351e-01  9.9951736527765511e-01  9.9950471722055401e-01  9.9949173389019208e-01  9.9947841517974434e-01  9.9946485229339099e-01  9.9945090530639191e-01  9.9943656212234067e-01  9.9942181474312630e-01  9.9940666299544323e-01  9.9939109984912877e-01  9.9937514867015620e-01  9.9935874774597344e-01  9.9934189693294018e-01  9.9932474417113737e-01  9.9930711612586842e-01  9.9928901258667668e-01  9.9927042068820482e-01  9.9925133866029370e-01  9.9923173314014313e-01  9.9921158714531599e-01  9.9919086721258876e-01  9.9916957310167609e-01  9.9914785119165017e-01  9.9912552066869609e-01  9.9910258135059182e-01  9.9907899547733092e-01  9.9905472323019073e-01  9.9903002975361910e-01  9.9900464941974643e-01  9.9897857151575586e-01  9.9895174354479488e-01  9.9892416529566219e-01  9.9889584794495245e-01  9.9886679479893326e-01  9.9883697222940304e-01  9.9880636393695266e-01  9.9877498925229269e-01  9.9874284797332002e-01  9.9870988680746697e-01  9.9867607742860875e-01  9.9864133133217370e-01  9.9860564825297593e-01  9.9856899803933541e-01  9.9853138564409216e-01  9.9849315831129193e-01  9.9845386616101006e-01  9.9841350871122037e-01  9.9837207400220740e-01  9.9832953951385717e-01  9.9828568684122310e-01  9.9824051543922843e-01  9.9819450786089536e-01  9.9814724477466144e-01  9.9809872550842660e-01  9.9804928444721441e-01  9.9799846150143956e-01  9.9794627245147027e-01  9.9789248363373273e-01  9.9783709456003988e-01  9.9778037208271142e-01  9.9772224462915748e-01  9.9766241713795434e-01  9.9760088888259080e-01  9.9753786135479472e-01  9.9747313072574428e-01  9.9740669655022618e-01  9.9733841777850218e-01  9.9726812685996880e-01  9.9719662893336214e-01  9.9712321792358749e-01  9.9704786464237516e-01  9.9697046330768657e-01  9.9689101334263430e-01  9.9680950514492472e-01  9.9672591384852638e-01  9.9664007288499512e-01  9.9655205428823523e-01  9.9646156872962544e-01  9.9636861543247934e-01  9.9627328436693219e-01  9.9617550758381079e-01  9.9607608498467515e-01  9.9597375173521752e-01  9.9586850674783467e-01  9.9576012321688401e-01  9.9564860233219454e-01  9.9553423940146346e-01  9.9541703336274945e-01  9.9529692966685035e-01  9.9517394893228628e-01  9.9504760246375501e-01  9.9491788931248903e-01  9.9478474928819582e-01  9.9464814501033216e-01  9.9450766974650051e-01  9.9436332245486192e-01  9.9421599814396888e-01  9.9406439293757309e-01  9.9390850561824329e-01  9.9374912816654593e-01  9.9358502139249127e-01  9.9341618327301040e-01  9.9324248802444381e-01  9.9306407209878400e-01  9.9288205953796194e-01  9.9269544628656969e-01  9.9250423101762164e-01  9.9230830294567085e-01  9.9210728045334240e-01  9.9190068603297443e-01  9.9168836259234616e-01  9.9147017147205241e-01  9.9124611051975298e-01  9.9101598365062860e-01  9.9077947455216908e-01  9.9053645976654214e-01  9.9028693645643340e-01  9.9003260316297470e-01  9.8977154925121935e-01  9.8950377270599532e-01  9.8922937913744913e-01  9.8894769619622747e-01  9.8865830670657184e-01  9.8836120750412793e-01  9.8805587678620022e-01  9.8774255409887424e-01  9.8742085388197198e-01  9.870904018723508