<?xml version="1.0"?>
<VTKFile type="UnstructuredGrid"  version="0.1"  >
<UnstructuredGrid>
<Piece  NumberOfPoints="5023" NumberOfCells="7844">
<Points>
<DataArray  type="Float64"  NumberOfComponents="3"  format="ascii">0 0.01 0  0 0 0  0.01 0 0  0.02 0 0  0.03 0 0  0.04 0 0  0.05 0 0  0.06 0 0  0.07000000000000001 0 0  0.08 0 0  0.09 0 0  0.1 0 0  0.11 0 0  0.12 0 0  0.13 0 0  0.14 0 0  0.15 0 0  0.16 0 0  0.17 0 0  0.18 0 0  0.19 0 0  0.2 0 0  0.21 0 0  0.22 0 0  0.23 0 0  0.24 0 0  0.25 0 0  0.26 0 0  0.27 0 0  0.28 0 0  0.29 0 0  0.3 0 0  0.31 0 0  0.32 0 0  0.33 0 0  0.34 0 0  0.35 0 0  0.36 0 0  0.37 0 0  0.38 0 0  0.39 0 0  0.4 0 0  0.41 0 0  0.42 0 0  0.43 0 0  0.44 0 0  0.45 0 0  0.46 0 0  0.47 0 0  0.48 0 0  0.49 0 0  0.5 0 0  0.51 0 0  0.52 0 0  0.53 0 0  0.54 0 0  0.55 0 0  0.5600000000000001 0 0  0.57 0 0  0.58 0 0  0.59 0 0  0.6 0 0  0.61 0 0  0.62 0 0  0.63 0 0  0.64 0 0  0.65 0 0  0.66 0 0  0.67 0 0  0.68 0 0  0.6899999999999999 0 0  0.7 0 0  0.71 0 0  0.72 0 0  0.73 0 0  0.74 0 0  0.75 0 0  0.76 0 0  0.77 0 0  0.78 0 0  0.79 0 0  0.8 0 0  0.8100000000000001 0 0  0.82 0 0  0.83 0 0  0.84 0 0  0.85 0 0  0.86 0 0  0.87 0 0  0.88 0 0  0.89 0 0  0.9 0 0  0.91 0 0  0.92 0 0  0.93 0 0  0.9399999999999999 0 0  0.95 0 0  0.96 0 0  0.97 0 0  0.98 0 0  0.99 0 0  1 0 0  1.01 0 0  1.02 0 0  1.03 0 0  1.04 0 0  1.05 0 0  1.06 0 0  1.07 0 0  1.08 0 0  1.09 0 0  1.1 0 0  1.11 0 0  1.12 0 0  1.13 0 0  1.14 0 0  1.15 0 0  1.16 0 0  1.17 0 0  1.18 0 0  1.19 0 0  1.2 0 0  1.21 0 0  1.22 0 0  1.23 0 0  1.24 0 0  1.25 0 0  1.26 0 0  1.27 0 0  1.28 0 0  1.29 0 0  1.3 0 0  1.31 0 0  1.32 0 0  1.33 0 0  1.34 0 0  1.35 0 0  1.36 0 0  1.37 0 0  1.38 0 0  1.39 0 0  1.4 0 0  1.41 0 0  1.42 0 0  1.43 0 0  1.44 0 0  1.45 0 0  1.46 0 0  1.47 0 0  1.48 0 0  1.49 0 0  1.5 0 0  1.51 0 0  1.52 0 0  1.53 0 0  1.54 0 0  1.55 0 0  1.56 0 0  1.57 0 0  1.58 0 0  1.59 0 0  1.6 0 0  1.61 0 0  1.62 0 0  1.63 0 0  1.64 0 0  1.65 0 0  1.66 0 0  1.67 0 0  1.68 0 0  1.69 0 0  1.7 0 0  1.71 0 0  1.72 0 0  1.73 0 0  1.74 0 0  1.75 0 0  1.76 0 0  1.77 0 0  1.78 0 0  1.79 0 0  1.8 0 0  1.81 0 0  1.82 0 0  1.83 0 0  1.84 0 0  1.85 0 0  1.86 0 0  1.87 0 0  1.88 0 0  1.89 0 0  1.9 0 0  1.91 0 0  1.92 0 0  1.93 0 0  1.94 0 0  1.95 0 0  1.96 0 0  1.97 0 0  1.98 0 0  1.99 0 0  2 0 0  2.01 0 0  2.02 0 0  2.03 0 0  2.04 0 0  2.05 0 0  2.06 0 0  2.07 0 0  2.08 0 0  2.09 0 0  2.1 0 0  2.11 0 0  2.12 0 0  2.13 0 0  2.14 0 0  2.15 0 0  2.16 0 0  2.17 0 0  2.18 0 0  2.19 0 0  2.2 0 0  2.21 0 0  2.22 0 0  2.23 0 0  2.24 0 0  2.25 0 0  2.26 0 0  2.27 0 0  2.28 0 0  2.29 0 0  2.3 0 0  2.31 0 0  2.32 0 0  2.33 0 0  2.34 0 0  2.35 0 0  2.36 0 0  2.37 0 0  2.38 0 0  2.39 0 0  2.4 0 0  2.41 0 0  2.42 0 0  2.43 0 0  2.44 0 0  2.45 0 0  2.46 0 0  2.47 0 0  2.48 0 0  2.49 0 0  2.5 0 0  2.51 0 0  2.52 0 0  2.53 0 0  2.54 0 0  2.55 0 0  2.56 0 0  2.57 0 0  2.58 0 0  2.59 0 0  2.6 0 0  2.61 0 0  2.62 0 0  2.63 0 0  2.64 0 0  2.65 0 0  2.66 0 0  2.67 0 0  2.68 0 0  2.69 0 0  2.7 0 0  2.71 0 0  2.72 0 0  2.73 0 0  2.74 0 0  2.75 0 0  2.76 0 0  2.77 0 0  2.78 0 0  2.79 0 0  2.8 0 0  2.81 0 0  2.82 0 0  2.83 0 0  2.84 0 0  2.85 0 0  2.86 0 0  2.87 0 0  2.88 0 0  2.89 0 0  2.9 0 0  2.91 0 0  2.92 0 0  2.93 0 0  2.94 0 0  2.95 0 0  2.96 0 0  2.97 0 0  2.98 0 0  2.99 0 0  3 0 0  3.01 0 0  3.02 0 0  3.03 0 0  3.04 0 0  3.05 0 0  3.06 0 0  3.07 0 0  3.08 0 0  3.09 0 0  3.1 0 0  3.11 0 0  3.12 0 0  3.13 0 0  3.14 0 0  3.15 0 0  3.16 0 0  3.17 0 0  3.18 0 0  3.19 0 0  3.2 0 0  3.21 0 0  3.22 0 0  3.23 0 0  3.24 0 0  3.25 0 0  3.26 0 0  3.27 0 0  3.28 0 0  3.29 0 0  3.3 0 0  3.31 0 0  3.32 0 0  3.33 0 0  3.34 0 0  3.35 0 0  3.36 0 0  3.37 0 0  3.38 0 0  3.39 0 0  3.4 0 0  3.41 0 0  3.42 0 0  3.43 0 0  3.44 0 0  3.45 0 0  3.46 0 0  3.47 0 0  3.48 0 0  3.49 0 0  3.5 0 0  3.51 0 0  3.52 0 0  3.53 0 0  3.54 0 0  3.55 0 0  3.56 0 0  3.57 0 0  3.58 0 0  3.59 0 0  3.6 0 0  3.61 0 0  3.62 0 0  3.63 0 0  3.64 0 0  3.65 0 0  3.66 0 0  3.67 0 0  3.68 0 0  3.69 0 0  3.7 0 0  3.71 0 0  3.72 0 0  3.73 0 0  3.74 0 0  3.75 0 0  3.76 0 0  3.77 0 0  3.78 0 0  3.79 0 0  3.8 0 0  3.81 0 0  3.82 0 0  3.83 0 0  3.84 0 0  3.85 0 0  3.86 0 0  3.87 0 0  3.88 0 0  3.89 0 0  3.9 0 0  3.91 0 0  3.92 0 0  3.93 0 0  3.94 0 0  3.95 0 0  3.96 0 0  3.97 0 0  3.98 0 0  3.99 0 0  4 0 0  4.01 0 0  4.02 0 0  4.03 0 0  4.04 0 0  4.05 0 0  4.06 0 0  4.07 0 0  4.08 0 0  4.09 0 0  4.1 0 0  4.11 0 0  4.12 0 0  4.13 0 0  4.14 0 0  4.15 0 0  4.16 0 0  4.17 0 0  4.18 0 0  4.19 0 0  4.2 0 0  4.21 0 0  4.22 0 0  4.23 0 0  4.24 0 0  4.25 0 0  4.26 0 0  4.27 0 0  4.28 0 0  4.29 0 0  4.3 0 0  4.31 0 0  4.32 0 0  4.33 0 0  4.34 0 0  4.35 0 0  4.36 0 0  4.37 0 0  4.38 0 0  4.39 0 0  4.4 0 0  4.41 0 0  4.42 0 0  4.43 0 0  4.44 0 0  4.45 0 0  4.46 0 0  4.47 0 0  4.48 0 0  4.49 0 0  4.5 0 0  4.51 -0.06282151815625525 0  4.52 -0.1255810390586241 0  4.53 -0.1882166266370302 0  4.54 -0.2506664671286087 0  4.55 -0.3128689300804606 0  4.56 -0.3747626291714468 0  4.57 -0.4362864827930868 0  4.58 -0.49737977432971 0  4.59 -0.5579822120784577 0  4.6 -0.6180339887498927 0  4.61 -0.6774758404905846 0  4.62 -0.7362491053693565 0  4.63 -0.7942957812695606 0  4.64 -0.8515585831301434 0  4.65 -0.9079809994790955 0  4.66 -0.9635073482034314 0  4.67 -1.018082831500742 0  4.68 -1.071653589957992 0  4.69 -1.124166755704263 0  4.7 -1.175570504584947 0  4.71 -1.225814107305953 0  4.72 -1.274847979497378 0  4.73 -1.322623730647306 0  4.74 -1.369094211857378 0  4.75 -1.414213562373095 0  4.76 -1.457937254842822 0  4.77 -1.500222139260917 0  4.78 -1.541026485551579 0  4.79 -1.580310024751381 0  4.8 -1.618033988749894 0  4.81 -1.654161148549122 0  4.82 -1.688655851004031 0  4.83 -1.721484054007887 0  4.84 -1.752613360087727 0  4.85 -1.782013048376735 0  4.86 -1.80965410493204 0  4.87 -1.835509251367963 0  4.88 -1.859552971776502 0  4.89 -1.88176153790845 0  4.9 -1.902113032590308 0  4.91 -1.920587371353886 0  4.92 -1.937166322257262 0  4.93 -1.951833523877494 0  4.94 -1.964574501457378 0  4.95 -1.975376681190276 0  4.96 -1.984229402628956 0  4.97 -1.99112392920616 0  4.98 -1.996053456856543 0  4.99 -1.999013120731463 0  5 -2 0  5.01 -1.999013120731463 0  5.02 -1.996053456856543 0  5.03 -1.99112392920616 0  5.04 -1.984229402628956 0  5.05 -1.975376681190276 0  5.06 -1.964574501457378 0  5.07 -1.951833523877494 0  5.08 -1.937166322257262 0  5.09 -1.920587371353886 0  5.1 -1.902113032590308 0  5.11 -1.88176153790845 0  5.12 -1.859552971776503 0  5.13 -1.835509251367963 0  5.14 -1.80965410493204 0  5.15 -1.782013048376735 0  5.16 -1.752613360087727 0  5.17 -1.721484054007888 0  5.18 -1.688655851004031 0  5.19 -1.654161148549123 0  5.2 -1.618033988749894 0  5.21 -1.580310024751381 0  5.22 -1.54102648555158 0  5.23 -1.500222139260918 0  5.24 -1.457937254842822 0  5.25 -1.414213562373095 0  5.26 -1.369094211857378 0  5.27 -1.322623730647306 0  5.28 -1.274847979497378 0  5.29 -1.225814107305953 0  5.3 -1.175570504584947 0  5.31 -1.124166755704263 0  5.32 -1.071653589957992 0  5.33 -1.018082831500742 0  5.34 -0.9635073482034312 0  5.35 -0.9079809994790962 0  5.36 -0.8515585831301434 0  5.37 -0.7942957812695605 0  5.38 -0.7362491053693571 0  5.39 -0.6774758404905852 0  5.4 -0.6180339887498926 0  5.41 -0.5579822120784582 0  5.42 -0.4973797743297105 0  5.43 -0.4362864827930872 0  5.44 -0.3747626291714474 0  5.45 -0.3128689300804611 0  5.46 -0.2506664671286091 0  5.47 -0.1882166266370305 0  5.48 -0.1255810390586245 0  5.49 -0.06282151815625558 0  5.5 -2.449293598294706e-16 0  5.51 0 0  5.52 0 0  5.53 0 0  5.54 0 0  5.55 0 0  5.56 0 0  5.57 0 0  5.58 0 0  5.59 0 0  5.6 0 0  5.61 0 0  5.62 0 0  5.63 0 0  5.64 0 0  5.65 0 0  5.66 0 0  5.67 0 0  5.68 0 0  5.69 0 0  5.7 0 0  5.71 0 0  5.72 0 0  5.73 0 0  5.74 0 0  5.75 0 0  5.76 0 0  5.77 0 0  5.78 0 0  5.79 0 0  5.8 0 0  5.81 0 0  5.82 0 0  5.83 0 0  5.84 0 0  5.85 0 0  5.86 0 0  5.87 0 0  5.88 0 0  5.89 0 0  5.9 0 0  5.91 0 0  5.92 0 0  5.93 0 0  5.94 0 0  5.95 0 0  5.96 0 0  5.97 0 0  5.98 0 0  5.99 0 0  6 0 0  6.01 0 0  6.02 0 0  6.03 0 0  6.04 0 0  6.05 0 0  6.06 0 0  6.07 0 0  6.08 0 0  6.09 0 0  6.1 0 0  6.11 0 0  6.12 0 0  6.13 0 0  6.14 0 0  6.15 0 0  6.16 0 0  6.17 0 0  6.18 0 0  6.19 0 0  6.2 0 0  6.21 0 0  6.22 0 0  6.23 0 0  6.24 0 0  6.25 0 0  6.26 0 0  6.27 0 0  6.28 0 0  6.29 0 0  6.3 0 0  6.31 0 0  6.32 0 0  6.33 0 0  6.34 0 0  6.35 0 0  6.36 0 0  6.37 0 0  6.38 0 0  6.39 0 0  6.4 0 0  6.41 0 0  6.42 0 0  6.43 0 0  6.44 0 0  6.45 0 0  6.46 0 0  6.47 0 0  6.48 0 0  6.49 0 0  6.5 0 0  6.51 0 0  6.52 0 0  6.53 0 0  6.54 0 0  6.55 0 0  6.56 0 0  6.57 0 0  6.58 0 0  6.59 0 0  6.6 0 0  6.61 0 0  6.62 0 0  6.63 0 0  6.64 0 0  6.65 0 0  6.66 0 0  6.67 0 0  6.68 0 0  6.69 0 0  6.7 0 0  6.71 0 0  6.72 0 0  6.73 0 0  6.74 0 0  6.75 0 0  6.76 0 0  6.77 0 0  6.78 0 0  6.79 0 0  6.8 0 0  6.81 0 0  6.82 0 0  6.83 0 0  6.84 0 0  6.85 0 0  6.86 0 0  6.87 0 0  6.88 0 0  6.89 0 0  6.9 0 0  6.91 0 0  6.92 0 0  6.93 0 0  6.94 0 0  6.95 0 0  6.96 0 0  6.97 0 0  6.98 0 0  6.99 0 0  7 0 0  7.01 0 0  7.02 0 0  7.03 0 0  7.04 0 0  7.05 0 0  7.06 0 0  7.07 0 0  7.08 0 0  7.09 0 0  7.1 0 0  7.11 0 0  7.12 0 0  7.13 0 0  7.14 0 0  7.15 0 0  7.16 0 0  7.17 0 0  7.18 0 0  7.19 0 0  7.2 0 0  7.21 0 0  7.22 0 0  7.23 0 0  7.24 0 0  7.25 0 0  7.26 0 0  7.27 0 0  7.28 0 0  7.29 0 0  7.3 0 0  7.31 0 0  7.32 0 0  7.33 0 0  7.34 0 0  7.35 0 0  7.36 0 0  7.37 0 0  7.38 0 0  7.39 0 0  7.4 0 0  7.41 0 0  7.42 0 0  7.43 0 0  7.44 0 0  7.45 0 0  7.46 0 0  7.47 0 0  7.48 0 0  7.49 0 0  7.5 0 0  7.51 0 0  7.52 0 0  7.53 0 0  7.54 0 0  7.55 0 0  7.56 0 0  7.57 0 0  7.58 0 0  7.59 0 0  7.6 0 0  7.61 0 0  7.62 0 0  7.63 0 0  7.64 0 0  7.65 0 0  7.66 0 0  7.67 0 0  7.68 0 0  7.69 0 0  7.7 0 0  7.71 0 0  7.72 0 0  7.73 0 0  7.74 0 0  7.75 0 0  7.76 0 0  7.77 0 0  7.78 0 0  7.79 0 0  7.8 0 0  7.81 0 0  7.82 0 0  7.83 0 0  7.84 0 0  7.85 0 0  7.86 0 0  7.87 0 0  7.88 0 0  7.89 0 0  7.9 0 0  7.91 0 0  7.92 0 0  7.93 0 0  7.94 0 0  7.95 0 0  7.96 0 0  7.97 0 0  7.98 0 0  7.99 0 0  8 0 0  8.01 0 0  8.02 0 0  8.029999999999999 0 0  8.039999999999999 0 0  8.0500000
[...]
<PointData  Scalars="f_855-1"> 
<DataArray  type="Float64"  Name="f_855-1"  format="ascii">-7.7748155220741111e+01  -7.7331209064222037e+01  -7.7627682066581926e+01  -7.7571161683941611e+01  -7.7478782407164218e+01  -7.7425866928428064e+01  -7.7324987076289617e+01  -7.7250776716692499e+01  -7.7168516725696264e+01  -7.7089751991861547e+01  -7.7007371344142811e+01  -7.6928687626962741e+01  -7.6848338851382792e+01  -7.6769214037992782e+01  -7.6689543465244725e+01  -7.6609718276200795e+01  -7.6529625997159201e+01  -7.6449884706058626e+01  -7.6369981676866459e+01  -7.6289997926361693e+01  -7.6209840386700549e+01  -7.6130339212892778e+01  -7.6050047044039900e+01  -7.5970059161164386e+01  -7.5889915357824918e+01  -7.5809343581836174e+01  -7.5730291046884915e+01  -7.5649805463937895e+01  -7.5569764494050361e+01  -7.5489627976134187e+01  -7.5409551067070311e+01  -7.5329308461757208e+01  -7.5249356847555916e+01  -7.5168995058517552e+01  -7.5089674174702552e+01  -7.5009546502538399e+01  -7.4929162030635439e+01  -7.4848987932547544e+01  -7.4769133835321554e+01  -7.4689163257230604e+01  -7.4608986304470591e+01  -7.4529244415598853e+01  -7.4449360562812814e+01  -7.4369321802841412e+01  -7.4289324914258785e+01  -7.4209199144234063e+01  -7.4128972336408069e+01  -7.4048761777564849e+01  -7.3969308367508532e+01  -7.3888893839769921e+01  -7.3808944032296395e+01  -7.3728812702434496e+01  -7.3649260909990957e+01  -7.3569205832412152e+01  -7.3489346415380254e+01  -7.3409066262167300e+01  -7.3329320073877952e+01  -7.3249104755932947e+01  -7.3169193267252822e+01  -7.3089671054365084e+01  -7.3009428868203855e+01  -7.2929340334975819e+01  -7.2849314561611848e+01  -7.2769471397413838e+01  -7.2689547666874674e+01  -7.2609394109490367e+01  -7.2529817814637624e+01  -7.2449205810834542e+01  -7.2369281244588848e+01  -7.2289546700362806e+01  -7.2209738600622629e+01  -7.2129740655546698e+01  -7.2049586749508720e+01  -7.1969434701225410e+01  -7.1889576350553966e+01  -7.1809980279273148e+01  -7.1729561313841955e+01  -7.1649547048743642e+01  -7.1569192051534273e+01  -7.1489735179195392e+01  -7.1409550553516411e+01  -7.1329659389421096e+01  -7.1249572474111616e+01  -7.1169726747882038e+01  -7.1089722478592364e+01  -7.1009741080536898e+01  -7.0929630133926324e+01  -7.0849461679263555e+01  -7.0769752570272800e+01  -7.0689336123790838e+01  -7.0610208763459681e+01  -7.0529559188758327e+01  -7.0449791060065593e+01  -7.0369613800969404e+01  -7.0289374491163230e+01  -7.0209359884955035e+01  -7.0129720663909779e+01  -7.0049504755532411e+01  -6.9969465491899740e+01  -6.9889820319217776e+01  -6.9809403050145534e+01  -6.9729690622101543e+01  -6.9649706296396033e+01  -6.9569844212161982e+01  -6.9489067587696056e+01  -6.9409562263172077e+01  -6.9329551129470261e+01  -6.9249332809636712e+01  -6.9169540991456358e+01  -6.9089341908946366e+01  -6.9009496947999764e+01  -6.8929330243839260e+01  -6.8849670279396904e+01  -6.8769080142960590e+01  -6.8689444784910776e+01  -6.8609169217639035e+01  -6.8529037568794053e+01  -6.8449559973134114e+01  -6.8369151699850718e+01  -6.8289277304743109e+01  -6.8209426104225585e+01  -6.8129196720910997e+01  -6.8049317216916350e+01  -6.7969133897050696e+01  -6.7889357673903916e+01  -6.7809230916737235e+01  -6.7729352627792494e+01  -6.7649090068584826e+01  -6.7569227629640523e+01  -6.7489038404943557e+01  -6.7409750353485080e+01  -6.7328672251775060e+01  -6.7249280618257458e+01  -6.7169115349328578e+01  -6.7089105041746180e+01  -6.7009236613875913e+01  -6.6929259766797358e+01  -6.6848988784185224e+01  -6.6769197111693927e+01  -6.6689332846706094e+01  -6.6609297557435482e+01  -6.6529351137062335e+01  -6.6449211248426579e+01  -6.6368901681322086e+01  -6.6289439460924427e+01  -6.6209262277247689e+01  -6.6129539645998648e+01  -6.6049284007666543e+01  -6.5969068392460201e+01  -6.5889146892885023e+01  -6.5809448768757534e+01  -6.5729302144057172e+01  -6.5649222941274644e+01  -6.5569319324788268e+01  -6.5489202793942695e+01  -6.5409621917448391e+01  -6.5329255724392453e+01  -6.5249589699648169e+01  -6.5169240789849439e+01  -6.5089465027528902e+01  -6.5009274657660015e+01  -6.4929612868650736e+01  -6.4849401326870137e+01  -6.4769400274358944e+01  -6.4689528403864259e+01  -6.4609507471643937e+01  -6.4529350689540237e+01  -6.4449483897104258e+01  -6.4369666957854164e+01  -6.4289486358655481e+01  -6.4209388424905057e+01  -6.4129495761811540e+01  -6.4049567251173670e+01  -6.3969250141545622e+01  -6.3890040242087458e+01  -6.3809435180533740e+01  -6.3729615914169138e+01  -6.3648775558727259e+01  -6.3570337278782368e+01  -6.3489515714910858e+01  -6.3409624094334696e+01  -6.3329480261496577e+01  -6.3249488946967212e+01  -6.3169478537259025e+01  -6.3089529788646416e+01  -6.3009168567578904e+01  -6.2930199755514671e+01  -6.2849357680126595e+01  -6.2769757049162152e+01  -6.2689516547317339e+01  -6.2609582192391194e+01  -6.2529538484893685e+01  -6.2449559180651121e+01  -6.2369517029919031e+01  -6.2289665434408597e+01  -6.2209826013354373e+01  -6.2129311766998462e+01  -6.2049713330401744e+01  -6.1969299836965121e+01  -6.1890082251303411e+01  -6.1809520182041688e+01  -6.1729364436003841e+01  -6.1649430438189725e+01  -6.1569493413276440e+01  -6.1489640788607140e+01  -6.1409372341814446e+01  -6.1329788277896725e+01  -6.1249429400632671e+01  -6.1169398658191938e+01  -6.1089410507732346e+01  -6.1009417742238050e+01  -6.0929510464105924e+01  -6.0849459095071815e+01  -6.0769398907238461e+01  -6.0689058390927414e+01  -6.0609746760305519e+01  -6.0529115080106230e+01  -6.0449560941637372e+01  -6.0369326319416288e+01  -6.0289291912004977e+01  -6.0209387893148332e+01  -6.0129225944348647e+01  -6.0049417294000342e+01  -5.9969363934985850e+01  -5.9889203648517764e+01  -5.9809327847021073e+01  -5.9729162427439839e+01  -5.9649131261891256e+01  -5.9569332070740032e+01  -5.9489366391938226e+01  -5.9409119851599804e+01  -5.9329208743567222e+01  -5.9249433730968121e+01  -5.9168917226520875e+01  -5.9089188464721495e+01  -5.9008860819175077e+01  -5.8929276791854292e+01  -5.8848441224314996e+01  -5.8769732163306408e+01  -5.8688914958243629e+01  -5.8609139456147226e+01  -5.8528851007975099e+01  -5.8449594255928723e+01  -5.8369033003346303e+01  -5.8289000100352347e+01  -5.8209056734680452e+01  -5.8128961373488011e+01  -5.8049025941060293e+01  -5.7969115656314159e+01  -5.7888907037714105e+01  -5.7809326709898819e+01  -5.7728840508050908e+01  -5.7648968865881095e+01  -5.7569042614775839e+01  -5.7489108522576302e+01  -5.7408810715538209e+01  -5.7328999038774271e+01  -5.7248891748831944e+01  -5.7168901583328207e+01  -5.7088948034796310e+01  -5.7008981153203571e+01  -5.6928950296595602e+01  -5.6849002065896833e+01  -5.6769006613715277e+01  -5.6688544471865761e+01  -5.6609156719745251e+01  -5.6528572712677992e+01  -5.6448897177168718e+01  -5.6369115801944488e+01  -5.6288788399363597e+01  -5.6209031526376435e+01  -5.6128762668193815e+01  -5.6049010131080628e+01  -5.5968713342903605e+01  -5.5888903303837481e+01  -5.5809142267639992e+01  -5.5728067393291774e+01  -5.5649509721003191e+01  -5.5568862053414101e+01  -5.5488770451356501e+01  -5.5408788864510626e+01  -5.5328925468229869e+01  -5.5248978768543239e+01  -5.5168656001197228e+01  -5.5088829264165604e+01  -5.5008971350023337e+01  -5.4928521626409463e+01  -5.4849013383757345e+01  -5.4768826622258914e+01  -5.4688915275942847e+01  -5.4608992010501282e+01  -5.4528611434892085e+01  -5.4448615692920342e+01  -5.4369096273072081e+01  -5.4288736947723969e+01  -5.4209367602164086e+01  -5.4128120307290281e+01  -5.4048978234722782e+01  -5.3968761320090330e+01  -5.3888827310582343e+01  -5.3808820864569185e+01  -5.3728747815227791e+01  -5.3648754724694477e+01  -5.3568769207171464e+01  -5.3488928887507520e+01  -5.3408923519846041e+01  -5.3328525090233988e+01  -5.3248838958172513e+01  -5.3168757913228170e+01  -5.3088844069574186e+01  -5.3008844586321061e+01  -5.2928828475584631e+01  -5.2848873972558692e+01  -5.2768782844664756e+01  -5.2689130842598757e+01  -5.2608836898010637e+01  -5.2528894176137136e+01  -5.2449182472261079e+01  -5.2368910945979344e+01  -5.2289044321511071e+01  -5.2209037993547064e+01  -5.2129478427919622e+01  -5.2048840730033220e+01  -5.1969354645887059e+01  -5.1889165848056223e+01  -5.1809428996075198e+01  -5.1729218927385048e+01  -5.1649686910536474e+01  -5.1569545466023776e+01  -5.1489684101728976e+01  -5.1409832608976181e+01  -5.1329829829744668e+01  -5.1250008891154160e+01  -5.1170030058481714e+01  -5.1090249142736283e+01  -5.1010420039585952e+01  -5.0930463145712523e+01  -5.0850642842454228e+01  -5.0771080780188115e+01  -5.0690953438466863e+01  -5.0611160694160162e+01  -5.0531557643691237e+01  -5.0451681025954592e+01  -5.0371853965008697e+01  -5.0292200233864008e+01  -5.0212364939285123e+01  -5.0132733391215559e+01  -5.0053009063640182e+01  -4.9973393130551706e+01  -4.9893617054286956e+01  -4.9814667315272594e+01  -4.9733883069325294e+01  -4.9654748907904363e+01  -4.9575889816865221e+01  -4.9495367033592665e+01  -4.9416247647786783e+01  -4.9336197789670962e+01  -4.9258057321792371e+01  -4.9177560822579537e+01  -4.9098585852486671e+01  -4.9019095482349691e+01  -4.8939655613405115e+01  -4.8860438156190632e+01  -4.8781081979235537e+01  -4.8701953033524845e+01  -4.8622894862949089e+01  -4.8543491263748500e+01  -4.8464542667218431e+01  -4.8385351824293281e+01  -4.8306361101702727e+01  -4.8227489593218856e+01  -4.8148702003467932e+01  -4.8069624667040237e+01  -4.7990940311856811e+01  -4.7912213790008607e+01  -4.7833507821073312e+01  -4.7754862696481382e+01  -4.7676184570807102e+01  -4.7597958359214466e+01  -4.7519209184624849e+01  -4.7441255938294027e+01  -4.7362843667686981e+01  -4.7284608501940127e+01  -4.7206502455341877e+01  -4.7128616821187819e+01  -4.7050633326481730e+01  -4.6972473066857219e+01  -4.6895074634841997e+01  -4.6817398651315493e+01  -4.6739629363561740e+01  -4.6662278014568798e+01  -4.6585108449743075e+01  -4.6508395382593811e+01  -4.6430082867189107e+01  -4.6353920208482378e+01  -4.6276731011702289e+01  -4.6200212070805435e+01  -4.6123793527491372e+01  -4.6047493125083982e+01  -4.5970567913174690e+01  -4.5895111191321568e+01  -4.5819323831294788e+01  -4.5742873274959720e+01  -4.5668244072842697e+01  -4.5591856141666490e+01  -4.5517626956854762e+01  -4.5442267115291997e+01  -4.5368080572238775e+01  -4.5293019550159499e+01  -4.5219490525661058e+01  -4.5145138914492478e+01  -4.5071510428852022e+01  -4.4998341945097010e+01  -4.4925139046766510e+01  -4.4852165484436519e+01  -4.4780482484555996e+01  -4.4707887162349031e+01  -4.4637284608369079e+01  -4.4565741242298827e+01  -4.4495810810767750e+01  -4.4424817583086075e+01  -4.4355724001493165e+01  -4.4286010772950362e+01  -4.4218242253305739e+01  -4.4150148605557469e+01  -4.4082982182259038e+01  -4.4016584210270821e+01  -4.3953212324068907e+01  -4.3886719953729212e+01  -4.3824823789653991e+01  -4.3763140456859219e+01  -4.3702420772619050e+01  -4.3647844132709757e+01  -4.3587590776680059e+01  -4.3536006100008372e+01  -4.3479810529935286e+01  -4.3438026641276736e+01  -4.3384562071247800e+01  -4.3356637295513053e+01  -4.3314599802390539e+01  -4.3298328101144087e+01  -4.3276997554554008e+01  -4.3280891238990684e+01  -4.3287713474631666e+01  -4.3319098128700787e+01  -4.3429029229863957e+01  -4.3484707965806322e+01  -4.2985550102832455e+01  -4.5539300107311298e+01  -4.2174968074642024e+01  -6.0787477057854638e+01  -2.6824668003552965e+01  -3.4238315519538276e+01  -3.6422369706619861e+01  -3.6899105036512054e+01  -3.7484135061403727e+01  -3.7736193170312504e+01  -3.8051544512929425e+01  -3.8212045805474112e+01  -3.8341040495217378e+01  -3.8471492942289593e+01  -3.8534063045564054e+01  -3.8584197318922186e+01  -3.8627049609647266e+01  -3.8639622237815821e+01  -3.8653211150008524e+01  -3.8665587080847736e+01  -3.8662599955749663e+01  -3.8665056143939218e+01  -3.8661940676730076e+01  -3.8660275406234540e+01  -3.8657149181608609e+01  -3.8656012216644456e+01  -3.8653524817383030e+01  -3.8652502213944295e+01  -3.8651006321390540e+01  -3.8649939561616520e+01  -3.8649612994059979e+01  -3.8649001016574964e+01  -3.8648506717561098e+01  -3.8647901215673187e+01  -3.8648504826394323e+01  -3.8647937827645308e+01  -3.8647971962051088e+01  -3.8647993876233841e+01  -3.8648231379910271e+01  -3.8647982783065835e+01  -3.8648445492196153e+01  -3.8648843276052176e+01  -3.8648560280711010e+01  -3.8649666219415423e+01  -3.8648523792944793e+01  -3.8651087168588127e+01  -3.8650220934255678e+01  -3.8651049093479543e+01  -3.8649950286127783e+01  -3.8653049322915663e+01  -3.8651821926953787e+01  -3.8651768058654334e+01  -3.8652098436459994e+01  -3.8652698460966867e+01  -3.8652215520563246e+01  -3.8652398946270011e+01  -3.8652524778459458e+01  -3.8651837608126577e+01  -3.8651707659502776e+01  -3.8651420740620367e+01  -3.8651138326676787e+01  -3.8650987762284849e+01  -3.8650235599580569e+01  -3.8651055294743692e+01  -3.8648450204219174e+01  -3.8649612272783990e+01  -3.8648722546945017e+01  -3.8648779945466103e+01  -3.8648420650068104e+01  -3.8648284880764514e+01  -3.8648093718148417e+01  -3.8648039977904318e+01  -3.8648127019745033e+01  -3.8647850599554481e+01  -3.8648201032301635e+01  -3.8648158300248852e+01  -3.8647817026476666e+01  -3.8647800869610052e+01  -3.8648116270982790e+01  -3.8646637956642763e+01  -3.8646495474951223e+01  -3.8645228743989293e+01  -3.8644275564611178e+01  -3.8641893826544539e+01  -3.8640833589474013e+01  -3.8637617572075939e+01  -3.8636269398352752e+01  -3.8632693318072022e+01  -3.8635311296123881e+01  -3.8632212910164974e+01  -3.8644538046602953e+01  -3.8658491885730619e+01  -3.8667640626490723e+01  -3.8719077229202071e+01  -3.8751223903522138e+01  -3.8845501248782043e+01  -3.8932207544487660e+01  -3.9081237959521332e+01  -3.9299698611565084e+01  -3.9535895409519121e+01  -3.9854452743874852e+01  -4.0343429399653139e+01  -4.1118660424323508e+01  -4.3505729328284481e+01  -4.6388882195503129e+01  -2.2436228741215889e+01  -3.6458441868706423e+01  -3.3316710091189123e+01  -3.3052028829970354e+01  -3.3681100815990959e+01  -3.3970891882028404e+01  -3.3922169629231483e+01  -3.4018677084725461e+01  -3.3993471062256511e+01  -3.4032056500973411e+01  -3.3994966284120167e+01  -3.3987599806134646e+01  -3.3946648758378217e+01  -3.3913788924683992e+01  -3.3863673311426588e+01  -3.3822055217376928e+01  -3.3765750282822815e+01  -3.3717321610816697e+01  -3.3659035359667520e+01  -3.3602325268657012e+01  -3.3540232766681676e+01  -3.3481213144274321e+01  -3.3415946813663567e+01  -3.3353543299117341e+01  -3.3287319308177914e+01  -3.3222066743665131e+01  -3.3155276559930286e+01  -3.3086331656497364e+01  -3.3019966531044282e+01  -3.2950457622102185e+01  -3.2882009881771239e+01  -3.2810897831887004e+01  -3.2741010342843069e+01  -3.2669163580787732e+01  -3.2598813240488624e+01  -3.2525545306727118e+01  -3.2454018302365498e+01  -3.2380685998499438e+01  -3.2308683448662386e+01  -3.2234370020108379e+01  -3.2161570256324026e+01  -3.2087241993518525e+01  -3.2012912963296984e+01  -3.1938822737735041e+01  -3.1863989360393710e+01  -3.1789300420225651e+01  -3.1713901308991939e+01  -3.1638899756761557e+01  -3.1562963683049897e+01  -3.1487503253326800e+01  -3.1411500705260679e+01  -3.1335665551994733e+01  -3.1259115832005673e+01  -3.1182988563230385e+01  -3.1106422342422654e+01  -3.1029796617659404e+01  -3.0952946313105034e+01  -3.0875939906916265e+01  -3.0798943347053740e+01  -3.0721660112576075e+01  -3.0644421721541541e+01  -3.0566866092662277e+01  -3.0489291964352788e+01  -3.0411986640702541e+01  -3.0333931489546490e+01  -3.0256271047809975e+01  -3.0178201875915601e+01  -3.0100519067692886e+01  -3.0022120420383363e+01  -2.9944238307055379e+01  -2.9865613634286706e+01  -2.9787500625090122e+01  -2.9708868799595741e+01  -2.9630823276299669e+01  -2.9552006413819541e+01  -2.9473569697510428e+01  -2.9394765514807339e+01  -2.9316058646331861e+01  -2.9237281203203430e+01  -2.9158468620236068e+01  -2.9079582357615706e+01  -2.9000631152784081e+01  -2.8921516984790632e+01  -2.8842778431998440e+01  -2.8763512391857120e+01  -2.8684405264009079e+01  -2.8605227531102653e+01  -2.8526064792053692e+01  -2.8446639451372786e+01  -2.8367745744933487e+01  -2.8288157134764397e+01  -2.8209023948844042e+01  -2.8129325021520589e+01  -2.8050085891664864e+01  -2.7970621364213788e+01  -2.7891215082858675e+01  -2.7811600753661519e+01  -2.7732178178685039e+01  -2.7652567305755344e+01  -2.7573021953466682e+01  -2.7493407812350949e+01  -2.7413816523611807e+01  -2.7334164635863825e+01  -2.7254504786314936e+01  -2.7174794514031220e+01  -2.7095222588417187e+01  -2.7015188494473183e+01  -2.6935957617525315e+01  -2.6855947347820852e+01  -2.6776164715438519e+01  -2.6696655691556245e+01  -2.6616361369278220e+01  -2.6536926087038161e+01  -2.6457116837424472e+01  -2.6377092278798443e+01  -2.6297453215732428e+01  -2.6217441760501604e+01  -2.6138167975249708e+01  -2.6057302112767005e+01  -2.5978051814494268e+01  -2.5898003080091158e+01  -2.5818217480483309e+01  -2.5738078163739619e+01  -2.5658506365236992e+01  -2.5578444106432631e+01  -2.5498514123187071e+01  -2.5418597096036240e+01  -2.5338690461325672e+01  -2.5258665952056141e+01  -2.5179345406824062e+01  -2.5098233067130653e+01  -2.5019018994889880e+01  -2.4938929464529071e+01  -2.4859014213576078e+01  -2.4779062536941044e+01  -2.4698985798678954e+01  -2.4619139845934971e+01  -2.4539065613897812e+01  -2.4459176918944671e+01  -2.4379100001197475e+01  -2.4299358338991667e+01  -2.4219009152616952e+01  -2.4139271740820256e+01  -2.4059201522194723e+01  -2.3979190635568990e+01  -2.3899231869031407e+01  -2.3819209461295614e+01  -2.3739248741444779e+01  -2.3659223651333512e+01  -2.3579269252382797e+01  -2.3499162595582526e+01  -2.3419403933624874e+01  -2.3339007915536627e+01  -2.3259210885603714e+01  -2.3179219488364417e+01  -2.3099185217517348e+01  -2.3019220541497511e+01  -2.2939136513196352e+01  -2.2859212346087826e+01  -2.2779095357194763e+01  -2.2699261015938813e+01  -2.2619012140528437e+01  -2.2539090551296994e+01  -2.2459533757336274e+01  -2.2378649390914347e+01  -2.2299171481669315e+01  -2.2219086528470744e+01  -2.2139038724229074e+01  -2.2059100077906464e+01  -2.1978740871499593e+01  -2.1899291682549407e+01  -2.1818944324559993e+01  -2.1739294878114492e+01  -2.1658650239786933e+01  -2.1579059581694825e+01  -2.1498827014643386e+01  -2.1418963473923419e+01  -2.1338900890208453e+01  -2.1258893506197914e+01  -2.1178892009431365e+01  -2.1098853122052358e+01  -2.1018860864139743e+01  -2.0938850822202738e+01  -2.0858800152522033e+01  -2.0778874011485886e+01  -2.0698572549526492e+01  -2.0618990857451895e+01  -2.0538734596300507e+01  -2.0458694436998911e+01  -2.0379101026057583e+01  -2.0298375131992337e+01  -2.0218769478871575e+01  -2.0138713041048582e+01  -2.0058594910965940e+01  -1.9979017237143911e+01  -1.9898309288911502e+01  -1.9818686364703673e+01  -1.9738586452296015e+01  -1.9658817032403153e+01  -1.9578378218200303e+01  -1.9498590059324652e+01  -1.9418694845275187e+01  -1.9338439799398028e+01  -1.9258561432744266e+01  -1.9178500319682023e+01  -1.9098520224116093e+01  -1.9018543181152292e+01  -1.8938440449952758e+01  -1.8858486169120170e+01  -1.8778472330785132e+01  -1.8698426556863396e+01  -1.8618471652893486e+01  -1.8538441370894770e+01  -1.8458298265934605e+01  -1.8378549083462044e+01  -1.8298329340586040e+01  -1.8218521156839163e+01  -1.8138316569757595e+01  -1.8058499133582430e+01  -1.7978239475155025e+01  -1.7898770607284153e+01  -1.7817921279217881e+01  -1.7738418956405187e+01  -1.7658248411782488e+01  -1.7578310102861597e+01  -1.7498261550962145e+01  -1.7418540102916875e+01  -1.7338026612260350e+01  -1.7258357297718270e+01  -1.7178134626339322e+01  -1.7098262658940968e+01  -1.7018239922000593e+01  -1.6938229137277489e+01  -1.6858193689576826e+01  -1.6778209902576673e+01  -1.6698384744051165e+01  -1.6618007915653180e+01  -1.6538237617003322e+01  -1.6458150102278374e+01  -1.6378284919506530e+01  -1.6298071222881621e+01  -1.6218168270599946e+01  -1.6138160802129548e+01  -1.6058069907158341e+01  -1.597823