<?xml version="1.0"?>
<VTKFile type="UnstructuredGrid"  version="0.1"  >
<UnstructuredGrid>
<Piece  NumberOfPoints="4970" NumberOfCells="7738">
<Points>
<DataArray  type="Float64"  NumberOfComponents="3"  format="ascii">0 0.01 0  0 0 0  0.01 0 0  0.02 0 0  0.03 0 0  0.04 0 0  0.05 0 0  0.06 0 0  0.07000000000000001 0 0  0.08 0 0  0.09 0 0  0.1 0 0  0.11 0 0  0.12 0 0  0.13 0 0  0.14 0 0  0.15 0 0  0.16 0 0  0.17 0 0  0.18 0 0  0.19 0 0  0.2 0 0  0.21 0 0  0.22 0 0  0.23 0 0  0.24 0 0  0.25 0 0  0.26 0 0  0.27 0 0  0.28 0 0  0.29 0 0  0.3 0 0  0.31 0 0  0.32 0 0  0.33 0 0  0.34 0 0  0.35 0 0  0.36 0 0  0.37 0 0  0.38 0 0  0.39 0 0  0.4 0 0  0.41 0 0  0.42 0 0  0.43 0 0  0.44 0 0  0.45 0 0  0.46 0 0  0.47 0 0  0.48 0 0  0.49 0 0  0.5 0 0  0.51 0 0  0.52 0 0  0.53 0 0  0.54 0 0  0.55 0 0  0.5600000000000001 0 0  0.57 0 0  0.58 0 0  0.59 0 0  0.6 0 0  0.61 0 0  0.62 0 0  0.63 0 0  0.64 0 0  0.65 0 0  0.66 0 0  0.67 0 0  0.68 0 0  0.6899999999999999 0 0  0.7 0 0  0.71 0 0  0.72 0 0  0.73 0 0  0.74 0 0  0.75 0 0  0.76 0 0  0.77 0 0  0.78 0 0  0.79 0 0  0.8 0 0  0.8100000000000001 0 0  0.82 0 0  0.83 0 0  0.84 0 0  0.85 0 0  0.86 0 0  0.87 0 0  0.88 0 0  0.89 0 0  0.9 0 0  0.91 0 0  0.92 0 0  0.93 0 0  0.9399999999999999 0 0  0.95 0 0  0.96 0 0  0.97 0 0  0.98 0 0  0.99 0 0  1 0 0  1.01 0 0  1.02 0 0  1.03 0 0  1.04 0 0  1.05 0 0  1.06 0 0  1.07 0 0  1.08 0 0  1.09 0 0  1.1 0 0  1.11 0 0  1.12 0 0  1.13 0 0  1.14 0 0  1.15 0 0  1.16 0 0  1.17 0 0  1.18 0 0  1.19 0 0  1.2 0 0  1.21 0 0  1.22 0 0  1.23 0 0  1.24 0 0  1.25 0 0  1.26 0 0  1.27 0 0  1.28 0 0  1.29 0 0  1.3 0 0  1.31 0 0  1.32 0 0  1.33 0 0  1.34 0 0  1.35 0 0  1.36 0 0  1.37 0 0  1.38 0 0  1.39 0 0  1.4 0 0  1.41 0 0  1.42 0 0  1.43 0 0  1.44 0 0  1.45 0 0  1.46 0 0  1.47 0 0  1.48 0 0  1.49 0 0  1.5 0 0  1.51 0 0  1.52 0 0  1.53 0 0  1.54 0 0  1.55 0 0  1.56 0 0  1.57 0 0  1.58 0 0  1.59 0 0  1.6 0 0  1.61 0 0  1.62 0 0  1.63 0 0  1.64 0 0  1.65 0 0  1.66 0 0  1.67 0 0  1.68 0 0  1.69 0 0  1.7 0 0  1.71 0 0  1.72 0 0  1.73 0 0  1.74 0 0  1.75 0 0  1.76 0 0  1.77 0 0  1.78 0 0  1.79 0 0  1.8 0 0  1.81 0 0  1.82 0 0  1.83 0 0  1.84 0 0  1.85 0 0  1.86 0 0  1.87 0 0  1.88 0 0  1.89 0 0  1.9 0 0  1.91 0 0  1.92 0 0  1.93 0 0  1.94 0 0  1.95 0 0  1.96 0 0  1.97 0 0  1.98 0 0  1.99 0 0  2 0 0  2.01 0 0  2.02 0 0  2.03 0 0  2.04 0 0  2.05 0 0  2.06 0 0  2.07 0 0  2.08 0 0  2.09 0 0  2.1 0 0  2.11 0 0  2.12 0 0  2.13 0 0  2.14 0 0  2.15 0 0  2.16 0 0  2.17 0 0  2.18 0 0  2.19 0 0  2.2 0 0  2.21 0 0  2.22 0 0  2.23 0 0  2.24 0 0  2.25 0 0  2.26 0 0  2.27 0 0  2.28 0 0  2.29 0 0  2.3 0 0  2.31 0 0  2.32 0 0  2.33 0 0  2.34 0 0  2.35 0 0  2.36 0 0  2.37 0 0  2.38 0 0  2.39 0 0  2.4 0 0  2.41 0 0  2.42 0 0  2.43 0 0  2.44 0 0  2.45 0 0  2.46 0 0  2.47 0 0  2.48 0 0  2.49 0 0  2.5 0 0  2.51 0 0  2.52 0 0  2.53 0 0  2.54 0 0  2.55 0 0  2.56 0 0  2.57 0 0  2.58 0 0  2.59 0 0  2.6 0 0  2.61 0 0  2.62 0 0  2.63 0 0  2.64 0 0  2.65 0 0  2.66 0 0  2.67 0 0  2.68 0 0  2.69 0 0  2.7 0 0  2.71 0 0  2.72 0 0  2.73 0 0  2.74 0 0  2.75 0 0  2.76 0 0  2.77 0 0  2.78 0 0  2.79 0 0  2.8 0 0  2.81 0 0  2.82 0 0  2.83 0 0  2.84 0 0  2.85 0 0  2.86 0 0  2.87 0 0  2.88 0 0  2.89 0 0  2.9 0 0  2.91 0 0  2.92 0 0  2.93 0 0  2.94 0 0  2.95 0 0  2.96 0 0  2.97 0 0  2.98 0 0  2.99 0 0  3 0 0  3.01 0 0  3.02 0 0  3.03 0 0  3.04 0 0  3.05 0 0  3.06 0 0  3.07 0 0  3.08 0 0  3.09 0 0  3.1 0 0  3.11 0 0  3.12 0 0  3.13 0 0  3.14 0 0  3.15 0 0  3.16 0 0  3.17 0 0  3.18 0 0  3.19 0 0  3.2 0 0  3.21 0 0  3.22 0 0  3.23 0 0  3.24 0 0  3.25 0 0  3.26 0 0  3.27 0 0  3.28 0 0  3.29 0 0  3.3 0 0  3.31 0 0  3.32 0 0  3.33 0 0  3.34 0 0  3.35 0 0  3.36 0 0  3.37 0 0  3.38 0 0  3.39 0 0  3.4 0 0  3.41 0 0  3.42 0 0  3.43 0 0  3.44 0 0  3.45 0 0  3.46 0 0  3.47 0 0  3.48 0 0  3.49 0 0  3.5 0 0  3.51 0 0  3.52 0 0  3.53 0 0  3.54 0 0  3.55 0 0  3.56 0 0  3.57 0 0  3.58 0 0  3.59 0 0  3.6 0 0  3.61 0 0  3.62 0 0  3.63 0 0  3.64 0 0  3.65 0 0  3.66 0 0  3.67 0 0  3.68 0 0  3.69 0 0  3.7 0 0  3.71 0 0  3.72 0 0  3.73 0 0  3.74 0 0  3.75 0 0  3.76 0 0  3.77 0 0  3.78 0 0  3.79 0 0  3.8 0 0  3.81 0 0  3.82 0 0  3.83 0 0  3.84 0 0  3.85 0 0  3.86 0 0  3.87 0 0  3.88 0 0  3.89 0 0  3.9 0 0  3.91 0 0  3.92 0 0  3.93 0 0  3.94 0 0  3.95 0 0  3.96 0 0  3.97 0 0  3.98 0 0  3.99 0 0  4 0 0  4.01 0 0  4.02 0 0  4.03 0 0  4.04 0 0  4.05 0 0  4.06 0 0  4.07 0 0  4.08 0 0  4.09 0 0  4.1 0 0  4.11 0 0  4.12 0 0  4.13 0 0  4.14 0 0  4.15 0 0  4.16 0 0  4.17 0 0  4.18 0 0  4.19 0 0  4.2 0 0  4.21 0 0  4.22 0 0  4.23 0 0  4.24 0 0  4.25 0 0  4.26 0 0  4.27 0 0  4.28 0 0  4.29 0 0  4.3 0 0  4.31 0 0  4.32 0 0  4.33 0 0  4.34 0 0  4.35 0 0  4.36 0 0  4.37 0 0  4.38 0 0  4.39 0 0  4.4 0 0  4.41 0 0  4.42 0 0  4.43 0 0  4.44 0 0  4.45 0 0  4.46 0 0  4.47 0 0  4.48 0 0  4.49 0 0  4.5 0 0  4.51 0 0  4.52 0 0  4.53 0 0  4.54 0 0  4.55 0 0  4.56 0 0  4.57 0 0  4.58 0 0  4.59 0 0  4.6 0 0  4.61 0 0  4.62 0 0  4.63 0 0  4.64 0 0  4.65 0 0  4.66 0 0  4.67 0 0  4.68 0 0  4.69 0 0  4.7 0 0  4.71 0 0  4.72 0 0  4.73 0 0  4.74 0 0  4.75 0 0  4.76 0 0  4.77 0 0  4.78 0 0  4.79 0 0  4.8 0 0  4.81 0 0  4.82 0 0  4.83 0 0  4.84 0 0  4.85 0 0  4.86 0 0  4.87 0 0  4.88 0 0  4.89 0 0  4.9 0 0  4.91 0 0  4.92 0 0  4.93 0 0  4.94 0 0  4.95 0 0  4.96 0 0  4.97 0 0  4.98 0 0  4.99 0 0  5 0 0  5.01 0 0  5.02 0 0  5.03 0 0  5.04 0 0  5.05 0 0  5.06 0 0  5.07 0 0  5.08 0 0  5.09 0 0  5.1 0 0  5.11 0 0  5.12 0 0  5.13 0 0  5.14 0 0  5.15 0 0  5.16 0 0  5.17 0 0  5.18 0 0  5.19 0 0  5.2 0 0  5.21 0 0  5.22 0 0  5.23 0 0  5.24 0 0  5.25 0 0  5.26 0 0  5.27 0 0  5.28 0 0  5.29 0 0  5.3 0 0  5.31 0 0  5.32 0 0  5.33 0 0  5.34 0 0  5.35 0 0  5.36 0 0  5.37 0 0  5.38 0 0  5.39 0 0  5.4 0 0  5.41 0 0  5.42 0 0  5.43 0 0  5.44 0 0  5.45 0 0  5.46 0 0  5.47 0 0  5.48 0 0  5.49 0 0  5.5 0 0  5.51 0 0  5.52 0 0  5.53 0 0  5.54 0 0  5.55 0 0  5.56 0 0  5.57 0 0  5.58 0 0  5.59 0 0  5.6 0 0  5.61 0 0  5.62 0 0  5.63 0 0  5.64 0 0  5.65 0 0  5.66 0 0  5.67 0 0  5.68 0 0  5.69 0 0  5.7 0 0  5.71 0 0  5.72 0 0  5.73 0 0  5.74 0 0  5.75 0 0  5.76 0 0  5.77 0 0  5.78 0 0  5.79 0 0  5.8 0 0  5.81 0 0  5.82 0 0  5.83 0 0  5.84 0 0  5.85 0 0  5.86 0 0  5.87 0 0  5.88 0 0  5.89 0 0  5.9 0 0  5.91 0 0  5.92 0 0  5.93 0 0  5.94 0 0  5.95 0 0  5.96 0 0  5.97 0 0  5.98 0 0  5.99 0 0  6 0 0  6.01 0 0  6.02 0 0  6.03 0 0  6.04 0 0  6.05 0 0  6.06 0 0  6.07 0 0  6.08 0 0  6.09 0 0  6.1 0 0  6.11 0 0  6.12 0 0  6.13 0 0  6.14 0 0  6.15 0 0  6.16 0 0  6.17 0 0  6.18 0 0  6.19 0 0  6.2 0 0  6.21 0 0  6.22 0 0  6.23 0 0  6.24 0 0  6.25 0 0  6.26 0 0  6.27 0 0  6.28 0 0  6.29 0 0  6.3 0 0  6.31 0 0  6.32 0 0  6.33 0 0  6.34 0 0  6.35 0 0  6.36 0 0  6.37 0 0  6.38 0 0  6.39 0 0  6.4 0 0  6.41 0 0  6.42 0 0  6.43 0 0  6.44 0 0  6.45 0 0  6.46 0 0  6.47 0 0  6.48 0 0  6.49 0 0  6.5 0 0  6.51 0 0  6.52 0 0  6.53 0 0  6.54 0 0  6.55 0 0  6.56 0 0  6.57 0 0  6.58 0 0  6.59 0 0  6.6 0 0  6.61 0 0  6.62 0 0  6.63 0 0  6.64 0 0  6.65 0 0  6.66 0 0  6.67 0 0  6.68 0 0  6.69 0 0  6.7 0 0  6.71 0 0  6.72 0 0  6.73 0 0  6.74 0 0  6.75 0 0  6.76 0 0  6.77 0 0  6.78 0 0  6.79 0 0  6.8 0 0  6.81 0 0  6.82 0 0  6.83 0 0  6.84 0 0  6.85 0 0  6.86 0 0  6.87 0 0  6.88 0 0  6.89 0 0  6.9 0 0  6.91 0 0  6.92 0 0  6.93 0 0  6.94 0 0  6.95 0 0  6.96 0 0  6.97 0 0  6.98 0 0  6.99 0 0  7 0 0  7.01 0 0  7.02 0 0  7.03 0 0  7.04 0 0  7.05 0 0  7.06 0 0  7.07 0 0  7.08 0 0  7.09 0 0  7.1 0 0  7.11 0 0  7.12 0 0  7.13 0 0  7.14 0 0  7.15 0 0  7.16 0 0  7.17 0 0  7.18 0 0  7.19 0 0  7.2 0 0  7.21 0 0  7.22 0 0  7.23 0 0  7.24 0 0  7.25 0 0  7.26 0 0  7.27 0 0  7.28 0 0  7.29 0 0  7.3 0 0  7.31 0 0  7.32 0 0  7.33 0 0  7.34 0 0  7.35 0 0  7.36 0 0  7.37 0 0  7.38 0 0  7.39 0 0  7.4 0 0  7.41 0 0  7.42 0 0  7.43 0 0  7.44 0 0  7.45 0 0  7.46 0 0  7.47 0 0  7.48 0 0  7.49 0 0  7.5 0 0  7.51 0 0  7.52 0 0  7.53 0 0  7.54 0 0  7.55 0 0  7.56 0 0  7.57 0 0  7.58 0 0  7.59 0 0  7.6 0 0  7.61 0 0  7.62 0 0  7.63 0 0  7.64 0 0  7.65 0 0  7.66 0 0  7.67 0 0  7.68 0 0  7.69 0 0  7.7 0 0  7.71 0 0  7.72 0 0  7.73 0 0  7.74 0 0  7.75 0 0  7.76 0 0  7.77 0 0  7.78 0 0  7.79 0 0  7.8 0 0  7.81 0 0  7.82 0 0  7.83 0 0  7.84 0 0  7.85 0 0  7.86 0 0  7.87 0 0  7.88 0 0  7.89 0 0  7.9 0 0  7.91 0 0  7.92 0 0  7.93 0 0  7.94 0 0  7.95 0 0  7.96 0 0  7.97 0 0  7.98 0 0  7.99 0 0  8 0 0  8.01 0 0  8.02 0 0  8.029999999999999 0 0  8.039999999999999 0 0  8.050000000000001 0 0  8.06 0 0  8.07 0 0  8.08 0 0  8.09 0 0  8.1 0 0  8.109999999999999 0 0  8.119999999999999 0 0  8.130000000000001 0 0  8.140000000000001 0 0  8.15 0 0  8.16 0 0  8.17 0 0  8.18 0 0  8.19 0 0  8.199999999999999 0 0  8.210000000000001 0 0  8.220000000000001 0 0  8.23 0 0  8.24 0 0  8.25 0 0  8.26 0 0  8.27 0 0  8.279999999999999 0 0  8.289999999999999 0 0  8.300000000000001 0 0  8.31 0 0  8.32 0 0  8.33 0 0  8.34 0 0  8.35 0 0  8.359999999999999 0 0  8.369999999999999 0 0  8.380000000000001 0 0  8.390000000000001 0 0  8.4 0 0  8.41 0 0  8.42 0 0  8.43 0 0  8.44 0 0  8.449999999999999 0 0  8.460000000000001 0 0  8.470000000000001 0 0  8.48 0 0  8.49 0 0  8.5 0 0  8.51 0 0  8.52 0 0  8.529999999999999 0 0  8.539999999999999 0 0  8.550000000000001 0 0  8.56 0 0  8.57 0 0  8.58 0 0  8.59 0 0  8.6 0 0  8.609999999999999 0 0  8.619999999999999 0 0  8.630000000000001 0 0  8.640000000000001 0 0  8.65 0 0  8.66 0 0  8.67 0 0  8.68 0 0  8.69 0 0  8.699999999999999 0 0  8.710000000000001 0 0  8.720000000000001 0 0  8.73 0 0  8.74 0 0  8.75 0 0  8.76 0 0  8.77 0 0  8.779999999999999 0 0  8.789999999999999 0 0  8.800000000000001 0 0  8.81 0 0  8.82 0 0  8.83 0 0  8.84 0 0  8.85 0 0  8.859999999999999 0 0  8.869999999999999 0 0  8.880000000000001 0 0  8.890000000000001 0 0  8.9 0 0  8.91 0 0  8.92 0 0  8.93 0 0  8.94 0 0  8.949999999999999 0 0  8.960000000000001 0 0  8.970000000000001 0 0  8.98 0 0  8.99 0 0  9 0 0  9.01 0 0  9.02 0 0  9.029999999999999 0 0  9.039999999999999 0 0  9.050000000000001 0 0  9.06 0 0  9.07 0 0  9.08 0 0  9.09 0 0  9.1 0 0  9.109999999999999 0 0  9.119999999999999 0 0  9.130000000000001 0 0  9.140000000000001 0 0  9.15 0 0  9.16 0 0  9.17 0 0  9.18 0 0  9.19 0
[...]
<PointData  Scalars="f_88"> 
<DataArray  type="Float64"  Name="f_88"  format="ascii">1.0000000000000000e+00  1.0000000000000000e+00  9.7388540289633929e-01  9.5440941816270186e-01  9.3808195768600411e-01  9.2347012808586237e-01  9.1041208948965735e-01  8.9873546850673736e-01  8.8803222272714555e-01  8.7819391337690256e-01  8.6897060023247041e-01  8.6030517050015731e-01  8.5215080982279579e-01  8.4446040038765446e-01  8.3700799529008141e-01  8.2993370456587490e-01  8.2317167114198586e-01  8.1667983117142828e-01  8.1042572317214634e-01  8.0444039175292115e-01  7.9866520073116221e-01  7.9309498703348946e-01  7.8771586335012278e-01  7.8255881381632697e-01  7.7757969477893985e-01  7.7269549834278550e-01  7.6798938412863482e-01  7.6341765923960214e-01  7.5896873372191809e-01  7.5462830631637035e-01  7.5042248777436882e-01  7.4631156996075965e-01  7.4229911960689832e-01  7.3837544495375618e-01  7.3456518243009106e-01  7.3083135653107778e-01  7.2714097398727595e-01  7.2355378426760975e-01  7.2003972892308843e-01  7.1661357146733939e-01  7.1324795190490620e-01  7.0996667792608581e-01  7.0673585684438167e-01  7.0355413908454578e-01  7.0041174590437694e-01  6.9733521096778250e-01  6.9429496086027598e-01  6.9131342989889366e-01  6.8837493447913856e-01  6.8548954689308494e-01  6.8265404096696147e-01  6.7988650422510299e-01  6.7716195338260965e-01  6.7445942643057544e-01  6.7180612192164046e-01  6.6918400273467871e-01  6.6661123355690555e-01  6.6406485000640847e-01  6.6155174977682729e-01  6.5906279367760479e-01  6.5662350709752371e-01  6.5420941504836605e-01  6.5182913231721840e-01  6.4947430532732242e-01  6.4715952816241984e-01  6.4486493249908228e-01  6.4258780096054502e-01  6.4034800341068221e-01  6.3812311815016776e-01  6.3591842451116221e-01  6.3373444386993660e-01  6.3158473051591979e-01  6.2945029039626232e-01  6.2734572995213644e-01  6.2525420728679626e-01  6.2318427147728883e-01  6.2113215092321827e-01  6.1910700325367851e-01  6.1709402734019181e-01  6.1511263835146390e-01  6.1314338766464216e-01  6.1119343477980081e-01  6.0925552063426680e-01  6.0732759652331014e-01  6.0542442824748410e-01  6.0352831273913410e-01  6.0165293888419136e-01  5.9979279838839106e-01  5.9795731870626989e-01  5.9613275687861456e-01  5.9433466585876227e-01  5.9254518463417238e-01  5.9077111233978852e-01  5.8900556763424039e-01  5.8724756223327335e-01  5.8550955408040772e-01  5.8377519695696045e-01  5.8205267536227701e-01  5.8033922853294095e-01  5.7864689815639614e-01  5.7696008852446301e-01  5.7527641661843443e-01  5.7360852601358103e-01  5.7194415070595017e-01  5.7029575931146814e-01  5.6864922337284929e-01  5.6701242680014152e-01  5.6537988216605373e-01  5.6376573980582778e-01  5.6215425492334692e-01  5.6055286501986779e-01  5.5895632941910156e-01  5.5737766672076683e-01  5.5580334722267988e-01  5.5423778364965004e-01  5.5268899053169629e-01  5.5114089717475556e-01  5.4960221867365333e-01  5.4807104948243024e-01  5.4655709269677888e-01  5.4504573467626838e-01  5.4354270914648228e-01  5.4204346111751800e-01  5.4055936929645054e-01  5.3907749712402386e-01  5.3760270651394271e-01  5.3613439319834810e-01  5.3468333467438889e-01  5.3323545623986179e-01  5.3178903889336437e-01  5.3035690414435854e-01  5.2892988025113619e-01  5.2751641534140870e-01  5.2610161241977049e-01  5.2469949877263167e-01  5.2329601493590727e-01  5.2190142984317878e-01  5.2050865665965584e-01  5.1912248140031181e-01  5.1774339210407516e-01  5.1637801435150643e-01  5.1501290984446735e-01  5.1364840979145743e-01  5.1229632099446021e-01  5.1094511493264683e-01  5.0959998010833718e-01  5.0825768588314935e-01  5.0692848622414388e-01  5.0560007086713810e-01  5.0428266961819546e-01  5.0296506532569918e-01  5.0165301072434898e-01  5.0034487525736904e-01  4.9904619769645103e-01  4.9774382384902488e-01  4.9643970910844687e-01  4.9514669348192142e-01  4.9385357368327765e-01  4.9257181586634902e-01  4.9129038369486971e-01  4.9001328908162495e-01  4.8874241637542182e-01  4.8748293432228068e-01  4.8622176289488939e-01  4.8497072459238960e-01  4.8371764655259075e-01  4.8246839564547717e-01  4.8122291030077080e-01  4.7998864602426422e-01  4.7875434243326526e-01  4.7752034507995533e-01  4.7629521511612399e-01  4.7506937540053651e-01  4.7384490424024289e-01  4.7262823085866157e-01  4.7141181373263757e-01  4.7020713282865251e-01  4.6900159287707954e-01  4.6780537937109290e-01  4.6660936602956266e-01  4.6541413133439247e-01  4.6422836098123682e-01  4.6304256553382628e-01  4.6185743932209367e-01  4.6067938967558009e-01  4.5950181829911746e-01  4.5833417393790066e-01  4.5716515435204946e-01  4.5600328153524561e-01  4.5484197100448853e-01  4.5368492795209525e-01  4.5253040753313828e-01  4.5138611669900341e-01  4.5024190015968651e-01  4.4909833765838425e-01  4.4796213144102193e-01  4.4682628301869165e-01  4.4570036616987369e-01  4.4457244680518204e-01  4.4345160995801186e-01  4.4233204796727082e-01  4.4122026163133993e-01  4.4010925061219858e-01  4.3899988117672506e-01  4.3789942052894970e-01  4.3679717503941862e-01  4.3569816373616499e-01  4.3460080415484093e-01  4.3351299683609151e-01  4.3242445696374116e-01  4.3133997959267217e-01  4.3025533994225568e-01  4.2917301516696610e-01  4.2809950547237613e-01  4.2702509477544764e-01  4.2595374089702176e-01  4.2488572127457225e-01  4.2382691257778382e-01  4.2276746177709962e-01  4.2170793999078926e-01  4.2065518933300922e-01  4.1960087035226246e-01  4.1854778654261082e-01  4.1750157298839302e-01  4.1645249306829857e-01  4.1540636366304823e-01  4.1436213506695152e-01  4.1332754224767987e-01  4.1229306056227938e-01  4.1125873679404146e-01  4.1023103710189412e-01  4.0920402647746962e-01  4.0818544192821360e-01  4.0716528288138792e-01  4.0614942474345606e-01  4.0513435703348566e-01  4.0412693978562136e-01  4.0311853363580696e-01  4.0211108593136413e-01  4.0111045404648260e-01  4.0010732794615672e-01  3.9910504461112323e-01  3.9810340198728567e-01  3.9710854447003380e-01  3.9611203553589769e-01  3.9511813253729910e-01  3.9413159846820939e-01  3.9314219437673315e-01  3.9215384884832383e-01  3.9116751458507287e-01  3.9019028955776447e-01  3.8921252096429426e-01  3.8824331164962328e-01  3.8727383473615423e-01  3.8630538794819069e-01  3.8533921641497426e-01  3.8437930566101375e-01  3.8341765559324864e-01  3.8245616226160961e-01  3.8149563306770884e-01  3.8054207695780606e-01  3.7958725197759174e-01  3.7863982753544440e-01  3.7769164579300896e-01  3.7674612895340293e-01  3.7580408714258501e-01  3.7486917238797818e-01  3.7393357898697482e-01  3.7299910721128282e-01  3.7207126094626536e-01  3.7114164173269920e-01  3.7021411435681972e-01  3.6928887916560449e-01  3.6837144512338466e-01  3.6745350850528541e-01  3.6653536711259060e-01  3.6562290823421223e-01  3.6471016644325016e-01  3.6380396881730176e-01  3.6289631698579183e-01  3.6199089329988060e-01  3.6108739446358157e-01  3.6019195581419866e-01  3.5929567652375494e-01  3.5839942821210102e-01  3.5751099378660139e-01  3.5662288022320049e-01  3.5573497765517220e-01  3.5485200237990772e-01  3.5396891177246242e-01  3.5309198136086883e-01  3.5221270429494927e-01  3.5133588822729783e-01  3.5046026903659305e-01  3.4959197262417080e-01  3.4872198246837749e-01  3.4785130477472581e-01  3.4698685198089080e-01  3.4612121363844461e-01  3.4525979616425223e-01  3.4439791656928936e-01  3.4353770576572890e-01  3.4268453679110139e-01  3.4183051562826255e-01  3.4097900521814151e-01  3.4012904333774319e-01  3.3928477504602733e-01  3.3843765070814463e-01  3.3758939201437282e-01  3.3674758261114474e-01  3.3590497431131006e-01  3.3506776090084622e-01  3.3423021863837316e-01  3.3339508921639999e-01  3.3256283894528843e-01  3.3173603240241717e-01  3.3090872378523623e-01  3.3008750411481169e-01  3.2926456898465351e-01  3.2844564374182900e-01  3.2762611105377276e-01  3.2680819489368179e-01  3.2599211550251267e-01  3.2518267228356923e-01  3.2437289888667292e-01  3.2356802994231454e-01  3.2276270706481025e-01  3.2195851827061100e-01  3.2116023270739114e-01  3.2036028109646431e-01  3.1956160814956919e-01  3.1876517151793715e-01  3.1797496325351732e-01  3.1718383831639035e-01  3.1639721487912570e-01  3.1560929401272630e-01  3.1482784837639349e-01  3.1404492032939996e-01  3.1326538229493217e-01  3.1248759428454992e-01  3.1171668828075694e-01  3.1094450118898220e-01  3.1017262806145607e-01  3.0940718119755606e-01  3.0864119785398858e-01  3.0787729318923834e-01  3.0711436441715406e-01  3.0635733905881857e-01  3.0559917073589793e-01  3.0484106771792424e-01  3.0408781430274517e-01  3.0333309883896986e-01  3.0257899288239581e-01  3.0182597824696167e-01  3.0107863848315258e-01  3.0033039072873247e-01  2.9958172757300827e-01  2.9883764096846682e-01  2.9809245329322065e-01  2.9734770176102582e-01  2.9660723089199259e-01  2.9586509823264540e-01  2.9512373564800159e-01  2.9438765304421072e-01  2.9364991656694944e-01  2.9291346776354732e-01  2.9218271536398638e-01  2.9145008829658764e-01  2.9072128119079621e-01  2.8999278877938800e-01  2.8926698779663151e-01  2.8854308240763332e-01  2.8782372380280696e-01  2.8710402536591551e-01  2.8639007567520081e-01  2.8567470386371469e-01  2.8496298415399035e-01  2.8425116042662546e-01  2.8354492676046106e-01  2.8283820176142921e-01  2.8213330910292905e-01  2.8143066800114874e-01  2.8073328346003829e-01  2.8003532517145469e-01  2.7933814535892415e-01  2.7864579355754948e-01  2.7795260351991818e-01  2.7726521217248479e-01  2.7657661968308206e-01  2.7589106939031161e-01  2.7520711217364163e-01  2.7452925324484240e-01  2.7385031479103183e-01  2.7317169306571037e-01  2.7249877044941750e-01  2.7182542584434033e-01  2.7115395386868041e-01  2.7048338543583955e-01  2.6981806013333698e-01  2.6915178514477178e-01  2.6848559999186111e-01  2.6782373864333059e-01  2.6716065527054056e-01  2.6649816912701574e-01  2.6583670145784005e-01  2.6518027963650048e-01  2.6452312166670361e-01  2.6386553762420301e-01  2.6321170007664041e-01  2.6255728118088262e-01  2.6190681448141406e-01  2.6125474863311665e-01  2.6060299935998832e-01  2.5995182574430614e-01  2.5930539667982888e-01  2.5865767956526919e-01  2.5800981900545206e-01  2.5736658820646857e-01  2.5672316180430599e-01  2.5608457382193567e-01  2.5544534668421820e-01  2.5480687525124113e-01  2.5417332118042429e-01  2.5353858397762097e-01  2.5290556205994974e-01  2.5227331727043778e-01  2.5164593034803029e-01  2.5101751713961212e-01  2.5039100425717337e-01  2.4976463280113825e-01  2.4914297997226956e-01  2.4852073388995494e-01  2.4789969516332422e-01  2.4728015868546524e-01  2.4666600134149783e-01  2.4605135690144911e-01  2.4543688277060563e-01  2.4482692649552174e-01  2.4421783706590067e-01  2.4361353361297025e-01  2.4300769395038138e-01  2.4240631610770372e-01  2.4180342467195690e-01  2.4120332879212353e-01  2.4060326690436390e-01  2.4000454115275649e-01  2.3940826949150174e-01  2.3881678339470339e-01  2.3822438841899141e-01  2.3763218606171224e-01  2.3704420326379677e-01  2.3645547356297308e-01  2.3586796768150095e-01  2.3528144157245962e-01  2.3469994188952131e-01  2.3411772425470073e-01  2.3354023784901470e-01  2.3296222318922419e-01  2.3238453344489463e-01  2.3180791182455840e-01  2.3123474463117577e-01  2.3066025484255614e-01  2.3008564342115267e-01  2.2951140452149460e-01  2.2894111224115168e-01  2.2836983646724976e-01  2.2780272662043080e-01  2.2723489946451092e-01  2.2666872699391880e-01  2.2610435610412846e-01  2.2554417251237024e-01  2.2498348046725372e-01  2.2442340828324264e-01  2.2386727626005878e-01  2.2331006057439232e-01  2.2275399734737861e-01  2.2219931240214291e-01  2.2164922050920607e-01  2.2109875267774323e-01  2.2054830016705276e-01  2.2000181937136798e-01  2.1945506716263988e-01  2.1890911809728561e-01  2.1836738344655349e-01  2.1782546833039260e-01  2.1728426232605549e-01  2.1674800360862165e-01  2.1621151130296126e-01  2.1567583878003577e-01  2.1514138335079783e-01  2.1461063950767600e-01  2.1407908833809455e-01  2.1354893288313201e-01  2.1302221620148820e-01  2.1249336827938239e-01  2.1196645895671673e-01  2.1143860309936771e-01  2.1091222235960233e-01  2.1038718002432380e-01  2.0986611981594874e-01  2.0934384891247004e-01  2.0882102911331282e-01  2.0830182547569742e-01  2.0778181244547142e-01  2.0726305829512093e-01  2.0674444834915126e-01  2.0623024028146764e-01  2.0571569276736107e-01  2.0520483048153043e-01  2.0469332805708376e-01  2.0418331498420991e-01  2.0367428515973326e-01  2.0316891293217912e-01  2.0266208472989244e-01  2.0215442794383029e-01  2.0165053611010242e-01  2.0114604890189466e-01  2.0064537349481273e-01  2.0014419876628009e-01  1.9964454012487434e-01  1.9914650576610016e-01  1.9865217930449205e-01  1.9815741704462125e-01  1.9766320295937037e-01  1.9717245663969604e-01  1.9668074491991086e-01  1.9619003898022827e-01  1.9570054089681585e-01  1.9521510367389733e-01  1.9472934234638659e-01  1.9424360313294492e-01  1.9376139039929935e-01  1.9327896003527290e-01  1.9279725471777359e-01  1.9231929729453806e-01  1.9184121029598195e-01  1.9136376587399453e-01  1.9089071659777898e-01  1.9041749227856480e-01  1.8994502774343419e-01  1.8947372560374345e-01  1.8900584265446996e-01  1.8853737055751016e-01  1.8807082370029143e-01  1.8760369438025665e-01  1.8713712785357089e-01  1.8667346409217622e-01  1.8620844697753364e-01  1.8574436425051161e-01  1.8528085823307455e-01  1.8482080068649448e-01  1.8435932436799332e-01  1.8390095886936605e-01  1.8344113605156651e-01  1.8298155942818856e-01  1.8252262454505322e-01  1.8206779620807639e-01  1.8161293219392602e-01  1.8116177752181811e-01  1.8071057386628936e-01  1.8025990896180871e-01  1.7981036397334357e-01  1.7936379930903235e-01  1.7891649323249384e-01  1.7846931263604809e-01  1.7802262842580405e-01  1.7757923041553234e-01  1.7713528435680714e-01  1.7669475970472504e-01  1.7625386330018378e-01  1.7581436200165379e-01  1.7537634851581124e-01  1.7494164351287037e-01  1.7450660309123731e-01  1.7407206142395906e-01  1.7364057945366046e-01  1.7320825938448112e-01  1.7277680431511769e-01  1.7234638020666843e-01  1.7191946880019646e-01  1.7149221377333512e-01  1.7106485371817240e-01  1.7064022848567101e-01  1.7021538840065689e-01  1.6979373293361744e-01  1.6937165478700850e-01  1.6895056328489008e-01  1.6853067571979263e-01  1.6811459170261109e-01  1.6769820616022846e-01  1.6728159271993950e-01  1.6686781831633912e-01  1.6645429439259160e-01  1.6604368453770083e-01  1.6563163607795708e-01  1.6522237802408360e-01  1.6481177651647741e-01  1.6440310847318620e-01  1.6399408743361960e-01  1.6358611015619484e-01  1.6317953444853048e-01  1.6277619319777403e-01  1.6237212119276218e-01  1.6196773603569570e-01  1.6156622089693454e-01  1.6116415340182511e-01  1.6076313044467383e-01  1.6036227782763982e-01  1.5996482547925542e-01  1.5956681067110215e-01  1.5917182276360697e-01  1.5877621958602031e-01  1.5838170700876431e-01  1.5798790773905813e-01  1.5759690366742229e-01  1.5720473843596999e-01  1.5681191385362447e-01  1.5642199248060643e-01  1.5603160030602947e-01  1.5564415257973416e-01  1.5525631313290486e-01  1.5486963803361264e-01  1.5448420909824850e-01  1.5410163468477767e-01  1.5371870785022446e-01  1.5333619408392618e-01  1.5295634018320683e-01  1.5257571472316864e-01  1.5219583727856592e-01  1.5181685722858257e-01  1.5144095555662582e-01  1.5106473671401377e-01  1.5068842936735860e-01  1.5031455873051036e-01  1.4994052768097949e-01  1.4956933396151603e-01  1.4919780199224844e-01  1.4882693808756567e-01  1.4845710138361093e-01  1.4809053875926745e-01  1.4772370876184618e-01  1.4735671217991358e-01  1.4699267928156332e-01  1.4662865686787396e-01  1.4626482004389926e-01  1.4590318727593560e-01  1.4554091989735451e-01  1.4517902116510548e-01  1.4481932328251579e-01  1.4445852444697735e-01  1.4409841806784227e-01  1.4373872698894169e-01  1.4338165563937696e-01  1.4302364545413015e-01  1.4266785110481298e-01  1.4231094578564815e-01  1.4195422630581139e-01  1.4159800015602481e-01  1.4124498776165004e-01  1.4089170201165874e-01  1.4054151431353049e-01  1.4019123540689551e-01  1.3984135363466324e-01  1.3949232795256328e-01  1.3914560418987840e-01  1.3879829269863209e-01  1.3845106970500956e-01  1.3810422380780207e-01  1.3775992071557386e-01  1.3741518316843235e-01  1.3707309579219529e-01  1.3673071301608294e-01  1.3638941199238461e-01  1.3604926720232507e-01  1.3571169886134402e-01  1.3537387732051673e-01  1.3503645180742146e-01  1.3470142583087508e-01  1.3436577294380506e-01  1.3403082703986707e-01  1.3369672010867850e-01  1.3336538174670229e-01  1.3303381897246144e-01  1.3270226423446763e-01  1.3237309569031261e-01  1.3204375752062500e-01  1.3171489645886864e-01  1.3138855938976729e-01  1.3106209884831524e-01  1.3073605709607464e-01  1.3041298267502427e-01  1.3008975431156000e-01  1.2976701257756934e-01  1.2944501447203441e-01  1.2912527584944186e-01  1.2880507484676898e-01  1.2848575255036498e-01  1.2816857917417965e-01  1.2785020207504519e-01  1.2753315339143409e-01  1.2721572463198713e-01  1.2689914894071389e-01  1.2658369263372002e-01  1.2627082026191377e-01  1.2595745558958868e-01  1.2564389838471712e-01  1.2533265251692705e-01  1.2502106507612548e-01  1.2471034066220706e-01  1.2439976897530126e-01  1.2409168062909508e-01  1.2378323479678539e-01  1.2347677384087036e-01  1.2316970274114558e-01  1.2286333851088208e-01  1.2255739514516661e-01  1.2225349452935191e-01  1.2194856162306246e-01  1.2164302300396436e-01  1.2133961448081718e-01  1.2103571037527365e-01  1.2073395493333383e-01  1.2043174978273159e-01  1.2013023164734411e-01  1.1982982745584507e-01  1.1953177275790185e-01  1.1923315791647521e-01  1.1893648944523659e-01  1.1863906489857472e-01  1.1834231208605306e-01  1.1804620095123250e-01  1.1775239835901595e-01  1.1745809587036703e-01  1.1716390103187255e-01  1.1687178654644471e-01  1.1657898143230880e-01  1.1628820302098347e-01  1.1599694542942254e-01  1.1570637418801556e-01  1.1541660892400922e-01  1.1512892088161410e-01  1.1484090033316531e-01  1.1455317765121702e-01  1.1426743113825547e-01  1.1398118627229203e-01  1.1369729709261839e-01  1.1341286365096545e-01  1.1313005115592695e-01  1.1284731707234549e-01  1.1256601211279604e-01  1.1228506592317249e-01  1.1200631843199260e-01  1.1172701376506988e-01  1.1144855437334471e-01  1.1117025814126197e-01  1.1089424449949034e-01  1.1061792551507721e-01  1.1034169325860134e-01  1.1006734819845351e-01  1.0979259060021218e-01  1.0951817598609918e-01  1.0924426280006488e-01  1.0897247478020404e-01  1.0870040097361490e-01  1.0842820051722574e-01  1.0815767431543616e-01  1.0788674792919122e-01  1.0761596989706371e-01  1.0734671476625665e-01  1.0707680914871547e-01  1.0680713754276205e-01  1.0653930015183238e-01  1.0627077047423464e-01  1.0600261609540103e-01  1.0573638128979060e-01  1.0546930757273336e-01  1.0520339865216537e-01  1.0493735343597799e-01  1.0467210084270218e-01  1.0440885194048290e-01  1.0414489588759433e-01  1.0388140794172372e-01  1.0361994079942830e-01  1.0335772281852233e-01  1.0309682088443908e-01  1.0283577728355980e-01  1.0257505542229584e-01  1.0231623330843614e-01  1.0205672191088484e-01  1.0179811635480673e-01  1.0153951627362283e-01  1.0128139716991776e-01  1.0102515597795463e-01  1.0076843191390762e-01  1.0051231094728806e-01  1.0025646028501281e-01  1.0000241881875623e-01  9.9747897192378462e-02  9.9494101225621787e-02  9.9242141998242411e-02  9.8989358118536000e-02  9.8737433384800663e-02  9.8485985255332267e-02  9.8236634156085981e-02  9.7986921038551208e-02  9.7737814683956953e-02  9.7488721986369972e-02  9.7241267482432239e-02  9.6993053168395751e-02  9.6745668436257509e-02  9.6497754648550621e-02  9.6249849826572878e-02  9.6002103352996665e-02  9.5755958830678320e-02  9.5509256839185735e-02  9.5262259719072109e-02  9.5016522362266556e-02  9.4770174965811887e-02  9.4523794857455837e-02  9.4278533994150135e-02  9.4032430537937861e-02  9.3786410301526402e-02  9.3541799191335720e-02  9.3296294722913009e-02  9.3050964195940652e-02  9.2807172951602471e-02  9.2562395376017792e-02  9.2318477537786853e-02  9.2074217687720325e-02  9.1830513405177422e