<?xml version="1.0"?>
<VTKFile type="UnstructuredGrid"  version="0.1"  >
<UnstructuredGrid>
<Piece  NumberOfPoints="4970" NumberOfCells="7738">
<Points>
<DataArray  type="Float64"  NumberOfComponents="3"  format="ascii">0 0.01 0  0 0 0  0.01 0 0  0.02 0 0  0.03 0 0  0.04 0 0  0.05 0 0  0.06 0 0  0.07000000000000001 0 0  0.08 0 0  0.09 0 0  0.1 0 0  0.11 0 0  0.12 0 0  0.13 0 0  0.14 0 0  0.15 0 0  0.16 0 0  0.17 0 0  0.18 0 0  0.19 0 0  0.2 0 0  0.21 0 0  0.22 0 0  0.23 0 0  0.24 0 0  0.25 0 0  0.26 0 0  0.27 0 0  0.28 0 0  0.29 0 0  0.3 0 0  0.31 0 0  0.32 0 0  0.33 0 0  0.34 0 0  0.35 0 0  0.36 0 0  0.37 0 0  0.38 0 0  0.39 0 0  0.4 0 0  0.41 0 0  0.42 0 0  0.43 0 0  0.44 0 0  0.45 0 0  0.46 0 0  0.47 0 0  0.48 0 0  0.49 0 0  0.5 0 0  0.51 0 0  0.52 0 0  0.53 0 0  0.54 0 0  0.55 0 0  0.5600000000000001 0 0  0.57 0 0  0.58 0 0  0.59 0 0  0.6 0 0  0.61 0 0  0.62 0 0  0.63 0 0  0.64 0 0  0.65 0 0  0.66 0 0  0.67 0 0  0.68 0 0  0.6899999999999999 0 0  0.7 0 0  0.71 0 0  0.72 0 0  0.73 0 0  0.74 0 0  0.75 0 0  0.76 0 0  0.77 0 0  0.78 0 0  0.79 0 0  0.8 0 0  0.8100000000000001 0 0  0.82 0 0  0.83 0 0  0.84 0 0  0.85 0 0  0.86 0 0  0.87 0 0  0.88 0 0  0.89 0 0  0.9 0 0  0.91 0 0  0.92 0 0  0.93 0 0  0.9399999999999999 0 0  0.95 0 0  0.96 0 0  0.97 0 0  0.98 0 0  0.99 0 0  1 0 0  1.01 0 0  1.02 0 0  1.03 0 0  1.04 0 0  1.05 0 0  1.06 0 0  1.07 0 0  1.08 0 0  1.09 0 0  1.1 0 0  1.11 0 0  1.12 0 0  1.13 0 0  1.14 0 0  1.15 0 0  1.16 0 0  1.17 0 0  1.18 0 0  1.19 0 0  1.2 0 0  1.21 0 0  1.22 0 0  1.23 0 0  1.24 0 0  1.25 0 0  1.26 0 0  1.27 0 0  1.28 0 0  1.29 0 0  1.3 0 0  1.31 0 0  1.32 0 0  1.33 0 0  1.34 0 0  1.35 0 0  1.36 0 0  1.37 0 0  1.38 0 0  1.39 0 0  1.4 0 0  1.41 0 0  1.42 0 0  1.43 0 0  1.44 0 0  1.45 0 0  1.46 0 0  1.47 0 0  1.48 0 0  1.49 0 0  1.5 0 0  1.51 0 0  1.52 0 0  1.53 0 0  1.54 0 0  1.55 0 0  1.56 0 0  1.57 0 0  1.58 0 0  1.59 0 0  1.6 0 0  1.61 0 0  1.62 0 0  1.63 0 0  1.64 0 0  1.65 0 0  1.66 0 0  1.67 0 0  1.68 0 0  1.69 0 0  1.7 0 0  1.71 0 0  1.72 0 0  1.73 0 0  1.74 0 0  1.75 0 0  1.76 0 0  1.77 0 0  1.78 0 0  1.79 0 0  1.8 0 0  1.81 0 0  1.82 0 0  1.83 0 0  1.84 0 0  1.85 0 0  1.86 0 0  1.87 0 0  1.88 0 0  1.89 0 0  1.9 0 0  1.91 0 0  1.92 0 0  1.93 0 0  1.94 0 0  1.95 0 0  1.96 0 0  1.97 0 0  1.98 0 0  1.99 0 0  2 0 0  2.01 0 0  2.02 0 0  2.03 0 0  2.04 0 0  2.05 0 0  2.06 0 0  2.07 0 0  2.08 0 0  2.09 0 0  2.1 0 0  2.11 0 0  2.12 0 0  2.13 0 0  2.14 0 0  2.15 0 0  2.16 0 0  2.17 0 0  2.18 0 0  2.19 0 0  2.2 0 0  2.21 0 0  2.22 0 0  2.23 0 0  2.24 0 0  2.25 0 0  2.26 0 0  2.27 0 0  2.28 0 0  2.29 0 0  2.3 0 0  2.31 0 0  2.32 0 0  2.33 0 0  2.34 0 0  2.35 0 0  2.36 0 0  2.37 0 0  2.38 0 0  2.39 0 0  2.4 0 0  2.41 0 0  2.42 0 0  2.43 0 0  2.44 0 0  2.45 0 0  2.46 0 0  2.47 0 0  2.48 0 0  2.49 0 0  2.5 0 0  2.51 0 0  2.52 0 0  2.53 0 0  2.54 0 0  2.55 0 0  2.56 0 0  2.57 0 0  2.58 0 0  2.59 0 0  2.6 0 0  2.61 0 0  2.62 0 0  2.63 0 0  2.64 0 0  2.65 0 0  2.66 0 0  2.67 0 0  2.68 0 0  2.69 0 0  2.7 0 0  2.71 0 0  2.72 0 0  2.73 0 0  2.74 0 0  2.75 0 0  2.76 0 0  2.77 0 0  2.78 0 0  2.79 0 0  2.8 0 0  2.81 0 0  2.82 0 0  2.83 0 0  2.84 0 0  2.85 0 0  2.86 0 0  2.87 0 0  2.88 0 0  2.89 0 0  2.9 0 0  2.91 0 0  2.92 0 0  2.93 0 0  2.94 0 0  2.95 0 0  2.96 0 0  2.97 0 0  2.98 0 0  2.99 0 0  3 0 0  3.01 0 0  3.02 0 0  3.03 0 0  3.04 0 0  3.05 0 0  3.06 0 0  3.07 0 0  3.08 0 0  3.09 0 0  3.1 0 0  3.11 0 0  3.12 0 0  3.13 0 0  3.14 0 0  3.15 0 0  3.16 0 0  3.17 0 0  3.18 0 0  3.19 0 0  3.2 0 0  3.21 0 0  3.22 0 0  3.23 0 0  3.24 0 0  3.25 0 0  3.26 0 0  3.27 0 0  3.28 0 0  3.29 0 0  3.3 0 0  3.31 0 0  3.32 0 0  3.33 0 0  3.34 0 0  3.35 0 0  3.36 0 0  3.37 0 0  3.38 0 0  3.39 0 0  3.4 0 0  3.41 0 0  3.42 0 0  3.43 0 0  3.44 0 0  3.45 0 0  3.46 0 0  3.47 0 0  3.48 0 0  3.49 0 0  3.5 0 0  3.51 0 0  3.52 0 0  3.53 0 0  3.54 0 0  3.55 0 0  3.56 0 0  3.57 0 0  3.58 0 0  3.59 0 0  3.6 0 0  3.61 0 0  3.62 0 0  3.63 0 0  3.64 0 0  3.65 0 0  3.66 0 0  3.67 0 0  3.68 0 0  3.69 0 0  3.7 0 0  3.71 0 0  3.72 0 0  3.73 0 0  3.74 0 0  3.75 0 0  3.76 0 0  3.77 0 0  3.78 0 0  3.79 0 0  3.8 0 0  3.81 0 0  3.82 0 0  3.83 0 0  3.84 0 0  3.85 0 0  3.86 0 0  3.87 0 0  3.88 0 0  3.89 0 0  3.9 0 0  3.91 0 0  3.92 0 0  3.93 0 0  3.94 0 0  3.95 0 0  3.96 0 0  3.97 0 0  3.98 0 0  3.99 0 0  4 0 0  4.01 0 0  4.02 0 0  4.03 0 0  4.04 0 0  4.05 0 0  4.06 0 0  4.07 0 0  4.08 0 0  4.09 0 0  4.1 0 0  4.11 0 0  4.12 0 0  4.13 0 0  4.14 0 0  4.15 0 0  4.16 0 0  4.17 0 0  4.18 0 0  4.19 0 0  4.2 0 0  4.21 0 0  4.22 0 0  4.23 0 0  4.24 0 0  4.25 0 0  4.26 0 0  4.27 0 0  4.28 0 0  4.29 0 0  4.3 0 0  4.31 0 0  4.32 0 0  4.33 0 0  4.34 0 0  4.35 0 0  4.36 0 0  4.37 0 0  4.38 0 0  4.39 0 0  4.4 0 0  4.41 0 0  4.42 0 0  4.43 0 0  4.44 0 0  4.45 0 0  4.46 0 0  4.47 0 0  4.48 0 0  4.49 0 0  4.5 0 0  4.51 0 0  4.52 0 0  4.53 0 0  4.54 0 0  4.55 0 0  4.56 0 0  4.57 0 0  4.58 0 0  4.59 0 0  4.6 0 0  4.61 0 0  4.62 0 0  4.63 0 0  4.64 0 0  4.65 0 0  4.66 0 0  4.67 0 0  4.68 0 0  4.69 0 0  4.7 0 0  4.71 0 0  4.72 0 0  4.73 0 0  4.74 0 0  4.75 0 0  4.76 0 0  4.77 0 0  4.78 0 0  4.79 0 0  4.8 0 0  4.81 0 0  4.82 0 0  4.83 0 0  4.84 0 0  4.85 0 0  4.86 0 0  4.87 0 0  4.88 0 0  4.89 0 0  4.9 0 0  4.91 0 0  4.92 0 0  4.93 0 0  4.94 0 0  4.95 0 0  4.96 0 0  4.97 0 0  4.98 0 0  4.99 0 0  5 0 0  5.01 0 0  5.02 0 0  5.03 0 0  5.04 0 0  5.05 0 0  5.06 0 0  5.07 0 0  5.08 0 0  5.09 0 0  5.1 0 0  5.11 0 0  5.12 0 0  5.13 0 0  5.14 0 0  5.15 0 0  5.16 0 0  5.17 0 0  5.18 0 0  5.19 0 0  5.2 0 0  5.21 0 0  5.22 0 0  5.23 0 0  5.24 0 0  5.25 0 0  5.26 0 0  5.27 0 0  5.28 0 0  5.29 0 0  5.3 0 0  5.31 0 0  5.32 0 0  5.33 0 0  5.34 0 0  5.35 0 0  5.36 0 0  5.37 0 0  5.38 0 0  5.39 0 0  5.4 0 0  5.41 0 0  5.42 0 0  5.43 0 0  5.44 0 0  5.45 0 0  5.46 0 0  5.47 0 0  5.48 0 0  5.49 0 0  5.5 0 0  5.51 0 0  5.52 0 0  5.53 0 0  5.54 0 0  5.55 0 0  5.56 0 0  5.57 0 0  5.58 0 0  5.59 0 0  5.6 0 0  5.61 0 0  5.62 0 0  5.63 0 0  5.64 0 0  5.65 0 0  5.66 0 0  5.67 0 0  5.68 0 0  5.69 0 0  5.7 0 0  5.71 0 0  5.72 0 0  5.73 0 0  5.74 0 0  5.75 0 0  5.76 0 0  5.77 0 0  5.78 0 0  5.79 0 0  5.8 0 0  5.81 0 0  5.82 0 0  5.83 0 0  5.84 0 0  5.85 0 0  5.86 0 0  5.87 0 0  5.88 0 0  5.89 0 0  5.9 0 0  5.91 0 0  5.92 0 0  5.93 0 0  5.94 0 0  5.95 0 0  5.96 0 0  5.97 0 0  5.98 0 0  5.99 0 0  6 0 0  6.01 0 0  6.02 0 0  6.03 0 0  6.04 0 0  6.05 0 0  6.06 0 0  6.07 0 0  6.08 0 0  6.09 0 0  6.1 0 0  6.11 0 0  6.12 0 0  6.13 0 0  6.14 0 0  6.15 0 0  6.16 0 0  6.17 0 0  6.18 0 0  6.19 0 0  6.2 0 0  6.21 0 0  6.22 0 0  6.23 0 0  6.24 0 0  6.25 0 0  6.26 0 0  6.27 0 0  6.28 0 0  6.29 0 0  6.3 0 0  6.31 0 0  6.32 0 0  6.33 0 0  6.34 0 0  6.35 0 0  6.36 0 0  6.37 0 0  6.38 0 0  6.39 0 0  6.4 0 0  6.41 0 0  6.42 0 0  6.43 0 0  6.44 0 0  6.45 0 0  6.46 0 0  6.47 0 0  6.48 0 0  6.49 0 0  6.5 0 0  6.51 0 0  6.52 0 0  6.53 0 0  6.54 0 0  6.55 0 0  6.56 0 0  6.57 0 0  6.58 0 0  6.59 0 0  6.6 0 0  6.61 0 0  6.62 0 0  6.63 0 0  6.64 0 0  6.65 0 0  6.66 0 0  6.67 0 0  6.68 0 0  6.69 0 0  6.7 0 0  6.71 0 0  6.72 0 0  6.73 0 0  6.74 0 0  6.75 0 0  6.76 0 0  6.77 0 0  6.78 0 0  6.79 0 0  6.8 0 0  6.81 0 0  6.82 0 0  6.83 0 0  6.84 0 0  6.85 0 0  6.86 0 0  6.87 0 0  6.88 0 0  6.89 0 0  6.9 0 0  6.91 0 0  6.92 0 0  6.93 0 0  6.94 0 0  6.95 0 0  6.96 0 0  6.97 0 0  6.98 0 0  6.99 0 0  7 0 0  7.01 0 0  7.02 0 0  7.03 0 0  7.04 0 0  7.05 0 0  7.06 0 0  7.07 0 0  7.08 0 0  7.09 0 0  7.1 0 0  7.11 0 0  7.12 0 0  7.13 0 0  7.14 0 0  7.15 0 0  7.16 0 0  7.17 0 0  7.18 0 0  7.19 0 0  7.2 0 0  7.21 0 0  7.22 0 0  7.23 0 0  7.24 0 0  7.25 0 0  7.26 0 0  7.27 0 0  7.28 0 0  7.29 0 0  7.3 0 0  7.31 0 0  7.32 0 0  7.33 0 0  7.34 0 0  7.35 0 0  7.36 0 0  7.37 0 0  7.38 0 0  7.39 0 0  7.4 0 0  7.41 0 0  7.42 0 0  7.43 0 0  7.44 0 0  7.45 0 0  7.46 0 0  7.47 0 0  7.48 0 0  7.49 0 0  7.5 0 0  7.51 0 0  7.52 0 0  7.53 0 0  7.54 0 0  7.55 0 0  7.56 0 0  7.57 0 0  7.58 0 0  7.59 0 0  7.6 0 0  7.61 0 0  7.62 0 0  7.63 0 0  7.64 0 0  7.65 0 0  7.66 0 0  7.67 0 0  7.68 0 0  7.69 0 0  7.7 0 0  7.71 0 0  7.72 0 0  7.73 0 0  7.74 0 0  7.75 0 0  7.76 0 0  7.77 0 0  7.78 0 0  7.79 0 0  7.8 0 0  7.81 0 0  7.82 0 0  7.83 0 0  7.84 0 0  7.85 0 0  7.86 0 0  7.87 0 0  7.88 0 0  7.89 0 0  7.9 0 0  7.91 0 0  7.92 0 0  7.93 0 0  7.94 0 0  7.95 0 0  7.96 0 0  7.97 0 0  7.98 0 0  7.99 0 0  8 0 0  8.01 0 0  8.02 0 0  8.029999999999999 0 0  8.039999999999999 0 0  8.050000000000001 0 0  8.06 0 0  8.07 0 0  8.08 0 0  8.09 0 0  8.1 0 0  8.109999999999999 0 0  8.119999999999999 0 0  8.130000000000001 0 0  8.140000000000001 0 0  8.15 0 0  8.16 0 0  8.17 0 0  8.18 0 0  8.19 0 0  8.199999999999999 0 0  8.210000000000001 0 0  8.220000000000001 0 0  8.23 0 0  8.24 0 0  8.25 0 0  8.26 0 0  8.27 0 0  8.279999999999999 0 0  8.289999999999999 0 0  8.300000000000001 0 0  8.31 0 0  8.32 0 0  8.33 0 0  8.34 0 0  8.35 0 0  8.359999999999999 0 0  8.369999999999999 0 0  8.380000000000001 0 0  8.390000000000001 0 0  8.4 0 0  8.41 0 0  8.42 0 0  8.43 0 0  8.44 0 0  8.449999999999999 0 0  8.460000000000001 0 0  8.470000000000001 0 0  8.48 0 0  8.49 0 0  8.5 0 0  8.51 0 0  8.52 0 0  8.529999999999999 0 0  8.539999999999999 0 0  8.550000000000001 0 0  8.56 0 0  8.57 0 0  8.58 0 0  8.59 0 0  8.6 0 0  8.609999999999999 0 0  8.619999999999999 0 0  8.630000000000001 0 0  8.640000000000001 0 0  8.65 0 0  8.66 0 0  8.67 0 0  8.68 0 0  8.69 0 0  8.699999999999999 0 0  8.710000000000001 0 0  8.720000000000001 0 0  8.73 0 0  8.74 0 0  8.75 0 0  8.76 0 0  8.77 0 0  8.779999999999999 0 0  8.789999999999999 0 0  8.800000000000001 0 0  8.81 0 0  8.82 0 0  8.83 0 0  8.84 0 0  8.85 0 0  8.859999999999999 0 0  8.869999999999999 0 0  8.880000000000001 0 0  8.890000000000001 0 0  8.9 0 0  8.91 0 0  8.92 0 0  8.93 0 0  8.94 0 0  8.949999999999999 0 0  8.960000000000001 0 0  8.970000000000001 0 0  8.98 0 0  8.99 0 0  9 0 0  9.01 0 0  9.02 0 0  9.029999999999999 0 0  9.039999999999999 0 0  9.050000000000001 0 0  9.06 0 0  9.07 0 0  9.08 0 0  9.09 0 0  9.1 0 0  9.109999999999999 0 0  9.119999999999999 0 0  9.130000000000001 0 0  9.140000000000001 0 0  9.15 0 0  9.16 0 0  9.17 0 0  9.18 0 0  9.19 0
[...]
<PointData  Scalars="f_54-1"> 
<DataArray  type="Float64"  Name="f_54-1"  format="ascii">-7.9589122040867480e+01  -7.9958319033541258e+01  -7.9508240491093346e+01  -7.9425852436612786e+01  -7.9340137752652623e+01  -7.9263761247876133e+01  -7.9187494906351304e+01  -7.9109069521317110e+01  -7.9021207881990918e+01  -7.8943010551488982e+01  -7.8859825549930576e+01  -7.8781586423985686e+01  -7.8700332331202546e+01  -7.8620617986688615e+01  -7.8541536618552527e+01  -7.8460341879643906e+01  -7.8380733669422469e+01  -7.8300458058017696e+01  -7.8220673010944921e+01  -7.8140697642244831e+01  -7.8061009641728830e+01  -7.7980613614973521e+01  -7.7900873727391655e+01  -7.7820146075987736e+01  -7.7739840473300461e+01  -7.7660582231313953e+01  -7.7580167691830596e+01  -7.7500591399995713e+01  -7.7420796135352134e+01  -7.7340360121428773e+01  -7.7260652546358585e+01  -7.7180394794138010e+01  -7.7100405313001545e+01  -7.7020264574142033e+01  -7.6940083951106175e+01  -7.6860854609125980e+01  -7.6779865246692111e+01  -7.6699556223296710e+01  -7.6619934249190194e+01  -7.6540074341449852e+01  -7.6460322057893649e+01  -7.6380465458873289e+01  -7.6300414183343449e+01  -7.6220182172375814e+01  -7.6139612634464143e+01  -7.6060134312732799e+01  -7.5979225814926380e+01  -7.5900149948969627e+01  -7.5819636313676213e+01  -7.5739408653864118e+01  -7.5658889162612596e+01  -7.5579552569875091e+01  -7.5499361684848495e+01  -7.5419326717761336e+01  -7.5339246461638893e+01  -7.5259210082548648e+01  -7.5179467786075520e+01  -7.5099394298761055e+01  -7.5019442440811929e+01  -7.4939142064544953e+01  -7.4859192120174612e+01  -7.4779311135726019e+01  -7.4699132301196954e+01  -7.4619458282282977e+01  -7.4539224170934403e+01  -7.4459273590673959e+01  -7.4379399720744189e+01  -7.4299557958611032e+01  -7.4219123489365742e+01  -7.4139411391103835e+01  -7.4059192642668023e+01  -7.3979661389834050e+01  -7.3899465503195955e+01  -7.3819909773385575e+01  -7.3739597611825943e+01  -7.3659674478379415e+01  -7.3579485797316053e+01  -7.3499521131374181e+01  -7.3419293464795587e+01  -7.3339658528079880e+01  -7.3259646825063811e+01  -7.3179429079757270e+01  -7.3099671299748650e+01  -7.3019825064220655e+01  -7.2939980995498203e+01  -7.2859848572417704e+01  -7.2779838114498503e+01  -7.2699831446771654e+01  -7.2619724635087465e+01  -7.2540003656595857e+01  -7.2459700995411424e+01  -7.2379874013925729e+01  -7.2299518734111786e+01  -7.2219843213138262e+01  -7.2140041138973217e+01  -7.2060002566293235e+01  -7.1979679063820157e+01  -7.1899737556997295e+01  -7.1819974197689433e+01  -7.1739991623764368e+01  -7.1659944481921954e+01  -7.1579609952395046e+01  -7.1500088331295984e+01  -7.1419715090409056e+01  -7.1340459321113286e+01  -7.1259735400721198e+01  -7.1179853785370483e+01  -7.1099954327496590e+01  -7.1020098837708090e+01  -7.0939805413570568e+01  -7.0859905688601017e+01  -7.0779857093751303e+01  -7.0700109238786126e+01  -7.0619954665626636e+01  -7.0539952484035311e+01  -7.0459982019554019e+01  -7.0379895181497872e+01  -7.0299808780371237e+01  -7.0220044538794923e+01  -7.0139937608885973e+01  -7.0059835149460383e+01  -6.9979832258585589e+01  -6.9899729414607407e+01  -6.9819751798738437e+01  -6.9739826491318667e+01  -6.9659852798796152e+01  -6.9579906175382987e+01  -6.9499827415552289e+01  -6.9419832010364360e+01  -6.9339663473706850e+01  -6.9259863320692972e+01  -6.9179892156355464e+01  -6.9099933054192917e+01  -6.9019800543781159e+01  -6.8939665469076544e+01  -6.8859809152022336e+01  -6.8779332797866900e+01  -6.8699898396632022e+01  -6.8619690389562564e+01  -6.8539719113761862e+01  -6.8460178716644378e+01  -6.8379651347987817e+01  -6.8300279585567907e+01  -6.8219099397683422e+01  -6.8139858822112387e+01  -6.8059784676000177e+01  -6.7979649749703484e+01  -6.7899800316879748e+01  -6.7819827590799775e+01  -6.7739846592636596e+01  -6.7659676824012806e+01  -6.7580034193980296e+01  -6.7499964924509371e+01  -6.7419541112909911e+01  -6.7339908131435408e+01  -6.7259742347611734e+01  -6.7179880863801628e+01  -6.7099639315643500e+01  -6.7019848888193593e+01  -6.6939973457006346e+01  -6.6859653845320651e+01  -6.6779928862210184e+01  -6.6699949226445810e+01  -6.6619836623888403e+01  -6.6539720643499777e+01  -6.6460137165382449e+01  -6.6379664331599002e+01  -6.6300565359177270e+01  -6.6219302304812274e+01  -6.6140003885415879e+01  -6.6059947614153785e+01  -6.5979886092058095e+01  -6.5900055430025517e+01  -6.5819920875390423e+01  -6.5740194077081057e+01  -6.5659875219708780e+01  -6.5580072151025604e+01  -6.5500119230071093e+01  -6.5420138429014642e+01  -6.5339894945145147e+01  -6.5260290765769980e+01  -6.5179973656779040e+01  -6.5100142338981783e+01  -6.5020308776874586e+01  -6.4940071440100851e+01  -6.4860259834103019e+01  -6.4779849636235454e+01  -6.4700307287754200e+01  -6.4620026479209116e+01  -6.4540619920702611e+01  -6.4460078345573322e+01  -6.4380372844975909e+01  -6.4299937224092062e+01  -6.4220399490145638e+01  -6.4140160130124414e+01  -6.4060263784910262e+01  -6.3980109853936334e+01  -6.3900359505989250e+01  -6.3820215318874219e+01  -6.3740212543040258e+01  -6.3660406201036373e+01  -6.3580448153175389e+01  -6.3500336473250179e+01  -6.3420272064750414e+01  -6.3340300144692065e+01  -6.3260221232342857e+01  -6.3180348037873948e+01  -6.3100270221889147e+01  -6.3020313078634501e+01  -6.2940362131982759e+01  -6.2860376635387276e+01  -6.2780185149679745e+01  -6.2701043830132107e+01  -6.2620154233669339e+01  -6.2540170814432294e+01  -6.2460373685594547e+01  -6.2380765026295379e+01  -6.2299817565626938e+01  -6.2220363332731438e+01  -6.2140578961508986e+01  -6.2060311880522157e+01  -6.1980218911361057e+01  -6.1900517445700068e+01  -6.1820357780957941e+01  -6.1740209646820297e+01  -6.1660150579315449e+01  -6.1580736008226886e+01  -6.1500038448074932e+01  -6.1420210934646974e+01  -6.1340393900005793e+01  -6.1260201471391191e+01  -6.1180027130253407e+01  -6.1100541075282457e+01  -6.1020152938919715e+01  -6.0940126435327421e+01  -6.0860097747617196e+01  -6.0780489877966581e+01  -6.0700139034820431e+01  -6.0619547700865922e+01  -6.0540663779640212e+01  -6.0460213187277319e+01  -6.0379980485638882e+01  -6.0300123442373852e+01  -6.0220200711907800e+01  -6.0140035351855694e+01  -6.0060252797950326e+01  -5.9979985797972667e+01  -5.9899847933394511e+01  -5.9820138575294585e+01  -5.9740138430937478e+01  -5.9659951248716098e+01  -5.9579980824818357e+01  -5.9499904501285243e+01  -5.9419996499764913e+01  -5.9339951509293300e+01  -5.9259967835977370e+01  -5.9180163017504519e+01  -5.9099885325150431e+01  -5.9019896710151372e+01  -5.8939936864847915e+01  -5.8859889574263804e+01  -5.8779857966239277e+01  -5.8699943256650407e+01  -5.8619787755774738e+01  -5.8540010955087880e+01  -5.8459656279989119e+01  -5.8379997361258418e+01  -5.8299801098177582e+01  -5.8220054607809196e+01  -5.8139506765510802e+01  -5.8059803320329166e+01  -5.7979841315590512e+01  -5.7899883808219684e+01  -5.7819816352196383e+01  -5.7739713937765714e+01  -5.7659899207595650e+01  -5.7579727598651886e+01  -5.7499909444483841e+01  -5.7419740112492924e+01  -5.7339795809649864e+01  -5.7259822729901074e+01  -5.7179912691213126e+01  -5.7099794269586951e+01  -5.7019799689100459e+01  -5.6939637983197336e+01  -5.6859910475693361e+01  -5.6779694426698327e+01  -5.6699965966440899e+01  -5.6619710803276426e+01  -5.6539867634007138e+01  -5.6459730819359919e+01  -5.6379830524239608e+01  -5.6299803336059320e+01  -5.6219859914369202e+01  -5.6139828517254202e+01  -5.6059827121515397e+01  -5.5979702366888212e+01  -5.5899914266801076e+01  -5.5819735421764612e+01  -5.5740079703163261e+01  -5.5659813154048074e+01  -5.5579826164734257e+01  -5.5499779447365711e+01  -5.5419908137996678e+01  -5.5339942086500649e+01  -5.5259752788408399e+01  -5.5179998487808469e+01  -5.5099917281117385e+01  -5.5019974173254305e+01  -5.4939770665844627e+01  -5.4859965404751108e+01  -5.4779989736447618e+01  -5.4699937173931751e+01  -5.4619909012719638e+01  -5.4540023495125659e+01  -5.4459943562281765e+01  -5.4379909108981678e+01  -5.4300026499431567e+01  -5.4219901976666343e+01  -5.4140270653833255e+01  -5.4059953988668028e+01  -5.3980091850040317e+01  -5.3899761818672545e+01  -5.3820105185240010e+01  -5.3740031769490628e+01  -5.3660225569379726e+01  -5.3580078993388256e+01  -5.3499877908846138e+01  -5.3420088264039506e+01  -5.3340221384565240e+01  -5.3259981007897061e+01  -5.3179854706855870e+01  -5.3100267068055103e+01  -5.3019965200023137e+01  -5.2940235163962825e+01  -5.2860209249291877e+01  -5.2779901287408180e+01  -5.2700310968619689e+01  -5.2620046606836695e+01  -5.2539980842829685e+01  -5.2460169300842260e+01  -5.2380182746769890e+01  -5.2299857710502692e+01  -5.2220343914698923e+01  -5.2140219498729337e+01  -5.2060069964330815e+01  -5.1979650819954401e+01  -5.1900622424519220e+01  -5.1820007890820975e+01  -5.1740312518955456e+01  -5.1659932848131831e+01  -5.1580212476733671e+01  -5.1500166269285948e+01  -5.1419645414893537e+01  -5.1340663606142897e+01  -5.1259966103907622e+01  -5.1180162114837422e+01  -5.1100293921702090e+01  -5.1020009249747211e+01  -5.0940102968059435e+01  -5.0860321568683801e+01  -5.0780024288222066e+01  -5.0700083212688824e+01  -5.0620129074173946e+01  -5.0540100948666236e+01  -5.0460039216964795e+01  -5.0380041730824189e+01  -5.0300092164194119e+01  -5.0220095897475225e+01  -5.0140096920227847e+01  -5.0060046839292632e+01  -4.9979950291806681e+01  -4.9900103887198462e+01  -4.9819906955488747e+01  -4.9740206147977609e+01  -4.9659983378970189e+01  -4.9580027645950551e+01  -4.9499843432827852e+01  -4.9420132969169309e+01  -4.9339956150799054e+01  -4.9259954202955761e+01  -4.9179955116866303e+01  -4.9100022788002661e+01  -4.9019961660586041e+01  -4.8939779803306791e+01  -4.8860014983081420e+01  -4.8779825055780286e+01  -4.8700006375371380e+01  -4.8619892089439411e+01  -4.8539875277442512e+01  -4.8459873379121767e+01  -4.8379904144361092e+01  -4.8299835210819765e+01  -4.8219724639306129e+01  -4.8140020773239272e+01  -4.8059689151973181e+01  -4.7979987618019329e+01  -4.7899334459848895e+01  -4.7820265356216268e+01  -4.7739667119618858e+01  -4.7659841977418203e+01  -4.7579886492814673e+01  -4.7499680496247365e+01  -4.7419819858543654e+01  -4.7339333538487125e+01  -4.7260296167506354e+01  -4.7179625343952289e+01  -4.7099646493000421e+01  -4.7019691490464602e+01  -4.6939803819414635e+01  -4.6859797949886833e+01  -4.6779592553616837e+01  -4.6699850353993476e+01  -4.6619047878786482e+01  -4.6540396247782517e+01  -4.6459527422446854e+01  -4.6379772412110370e+01  -4.6299568529556453e+01  -4.6219802667490619e+01  -4.6139667896421784e+01  -4.6059571782911526e+01  -4.5979998153313176e+01  -4.5899362668786679e+01  -4.5819753868032791e+01  -4.5739529177454045e+01  -4.5659802105545111e+01  -4.5579616470122211e+01  -4.5499650239605316e+01  -4.5419624968838072e+01  -4.5339568430673772e+01  -4.5259758783263948e+01  -4.5179517015212461e+01  -4.5099832464897425e+01  -4.5019209909735821e+01  -4.4940088353557655e+01  -4.4859546808674658e+01  -4.4779811781804831e+01  -4.4699550239468785e+01  -4.4619711724841395e+01  -4.4539677264201991e+01  -4.4459791949720064e+01  -4.4379439161716860e+01  -4.4299866676343406e+01  -4.4219364952776267e+01  -4.4139714585033403e+01  -4.4059810569410388e+01  -4.3979331579243620e+01  -4.3900104377020668e+01  -4.3819612958414481e+01  -4.3739891626773840e+01  -4.3659589279973027e+01  -4.3579709095444983e+01  -4.3499762545232514e+01  -4.3419639245961484e+01  -4.3339763007285704e+01  -4.3259893913042653e+01  -4.3179651614328272e+01  -4.3099810888392227e+01  -4.3019794135735999e+01  -4.2939787333915788e+01  -4.2859806995332036e+01  -4.2779818951465749e+01  -4.2699864795301387e+01  -4.2619741775515763e+01  -4.2539900491737342e+01  -4.2459859904754403e+01  -4.2379875269186982e+01  -4.2299880726486649e+01  -4.2219975701902264e+01  -4.2139757364667219e+01  -4.2060004526975909e+01  -4.1979957648064612e+01  -4.1900038502912906e+01  -4.1819789841066935e+01  -4.1740040266627915e+01  -4.1659949693972884e+01  -4.1580250683444277e+01  -4.1499650301629060e+01  -4.1420186721552540e+01  -4.1339774404897703e+01  -4.1260075574269102e+01  -4.1180265409634814e+01  -4.1099149438991226e+01  -4.1020938322340342e+01  -4.0939990774838179e+01  -4.0860206167299211e+01  -4.0780012559652143e+01  -4.0700101156727001e+01  -4.0620277342816820e+01  -4.0539814139777853e+01  -4.0460329217138067e+01  -4.0380191230628299e+01  -4.0299925501957397e+01  -4.0220405377550151e+01  -4.0140135497033619e+01  -4.0060298888210966e+01  -3.9980256235046397e+01  -3.9900162725365377e+01  -3.9820093733183008e+01  -3.9740374075793234e+01  -3.9660181706134836e+01  -3.9580723573983015e+01  -3.9499706207509632e+01  -3.9420398430772671e+01  -3.9340300462639163e+01  -3.9260280788695304e+01  -3.9180220140148471e+01  -3.9100336433129009e+01  -3.9020307271425487e+01  -3.8940286124407017e+01  -3.8860312895212559e+01  -3.8780292984060530e+01  -3.8700297921216034e+01  -3.8620334001833868e+01  -3.8540367979310467e+01  -3.8460458975473202e+01  -3.8379817015085848e+01  -3.8300875704747057e+01  -3.8220281669450564e+01  -3.8140401504518032e+01  -3.8060124964480934e+01  -3.7980532234743649e+01  -3.7900350911099473e+01  -3.7820554913815378e+01  -3.7740096730758886e+01  -3.7660437443493443e+01  -3.7580269157302922e+01  -3.7500951186004293e+01  -3.7419692633155577e+01  -3.7340562486321815e+01  -3.7260175160447254e+01  -3.7180490246035582e+01  -3.7100515158134520e+01  -3.7019708197061924e+01  -3.6940935523039350e+01  -3.6860324058082121e+01  -3.6780414607874050e+01  -3.6700283395733400e+01  -3.6620400438458660e+01  -3.6540336146028032e+01  -3.6460445906887685e+01  -3.6380202120730523e+01  -3.6300240204900831e+01  -3.6220735284542300e+01  -3.6140237733103042e+01  -3.6060312741295810e+01  -3.5980334930272527e+01  -3.5900317058124102e+01  -3.5820257747827718e+01  -3.5740386155206991e+01  -3.5660173501610778e+01  -3.5580717387975454e+01  -3.5499893484604165e+01  -3.5420352484403729e+01  -3.5340233800437893e+01  -3.5260320753838748e+01  -3.5180172057348962e+01  -3.5100272220417757e+01  -3.5020213686752633e+01  -3.4940224401032808e+01  -3.4860147895821200e+01  -3.4780663183526357e+01  -3.4699750223207644e+01  -3.4620257910157711e+01  -3.4540156123041037e+01  -3.4460280528891367e+01  -3.4380204876968492e+01  -3.4299626808819326e+01  -3.4220679889662449e+01  -3.4140046262491005e+01  -3.4060070920360630e+01  -3.3980281018922064e+01  -3.3899965660857688e+01  -3.3820074918310787e+01  -3.3740291151415576e+01  -3.3659934919555013e+01  -3.3580073689275174e+01  -3.3499986937721992e+01  -3.3420537370269436e+01  -3.3339523735209539e+01  -3.3260132739317399e+01  -3.3179897449254398e+01  -3.3100061031850593e+01  -3.3019802824657191e+01  -3.2940177005721985e+01  -3.2859937458914530e+01  -3.2779975130311875e+01  -3.2699992217105688e+01  -3.2619921732217577e+01  -3.2539956318925988e+01  -3.2459915409531732e+01  -3.2379936237445463e+01  -3.2299740380113761e+01  -3.2220120765038189e+01  -3.2139752629624141e+01  -3.2060073676996588e+01  -3.1979822199150998e+01  -3.1899865993561246e+01  -3.1819810797569513e+01  -3.1739854519100483e+01  -3.1660149879418931e+01  -3.1579526144707170e+01  -3.1499816871228273e+01  -3.1420078774379274e+01  -3.1339598835834963e+01  -3.1259813035023644e+01  -3.1179778974884108e+01  -3.1099839874150152e+01  -3.1019719467432541e+01  -3.0939782587270891e+01  -3.0859758290828523e+01  -3.0779718204357327e+01  -3.0699752554837236e+01  -3.0619984100580012e+01  -3.0539541362627563e+01  -3.0459761011774663e+01  -3.0379682239850119e+01  -3.0299755306149809e+01  -3.0219560421626223e+01  -3.0139892119470808e+01  -3.0059689368119450e+01  -2.9979694936373402e+01  -2.9899703828821849e+01  -2.9819766567877679e+01  -2.9739636297188959e+01  -2.9659803583744775e+01  -2.9579653237651716e+01  -2.9499667948529893e+01  -2.9419702085935707e+01  -2.9339714115703533e+01  -2.9259682094750055e+01  -2.9179701253019630e+01  -2.9099555195171217e+01  -2.9019705563373087e+01  -2.8939701443954259e+01  -2.8859694644007046e+01  -2.8779650201387319e+01  -2.8699682549413055e+01  -2.8619898513030417e+01  -2.8539488052948684e+01  -2.8459710037684790e+01  -2.8379565501110449e+01  -2.8299843204608209e+01  -2.8219694038105416e+01  -2.8139347334846644e+01  -2.8060021822141167e+01  -2.7979580801843607e+01  -2.7899779577632422e+01  -2.7819640144339328e+01  -2.7739678157289543e+01  -2.7659710888553271e+01  -2.7579882319214342e+01  -2.7499518888619932e+01  -2.7419809308765636e+01  -2.7339581913966406e+01  -2.7259734179581820e+01  -2.7179739334778535e+01  -2.7099754636078710e+01  -2.7019747803548540e+01  -2.6939642954805336e+01  -2.6859843773389962e+01  -2.6779744272535048e+01  -2.6699769485112736e+01  -2.6619670084506986e+01  -2.6539863309855274e+01  -2.6459745332711211e+01  -2.6379780608435357e+01  -2.6299738869383066e+01  -2.6219737663922899e+01  -2.6140168408154295e+01  -2.6059423001488302e+01  -2.5979864652823682e+01  -2.5899873352171120e+01  -2.5819535536736183e+01  -2.5740098091561048e+01  -2.5659828926660268e+01  -2.5579609442794723e+01  -2.5500044844406236e+01  -2.5419819653380440e+01  -2.5339884135621162e+01  -2.5259637286289202e+01  -2.5180079587095101e+01  -2.5099876640085331e+01  -2.5019665160779162e+01  -2.4940083557123064e+01  -2.4859740290463680e+01  -2.4780681095973495e+01  -2.4699142250630945e+01  -2.4619985665233461e+01  -2.4539901977328288e+01  -2.4459946807606350e+01  -2.4379922129786380e+01  -2.4299910726153332e+01  -2.4220248833115274e+01  -2.4139582546873704e+01  -2.4060017784677996e+01  -2.3979812702954924e+01  -2.3900077926178305e+01  -2.3819993171360956e+01  -2.3739896638556836e+01  -2.3660012558369409e+01  -2.3579990887604190e+01  -2.3499748355875976e+01  -2.3420231364502811e+01  -2.3339993825910017e+01  -2.3259949467692845e+01  -2.3180015865951589e+01  -2.3100028035300053e+01  -2.3020034477989856e+01  -2.2939937237736739e+01  -2.2860084907393102e+01  -2.2780040791843792e+01  -2.2700015922014611e+01  -2.2620028023774569e+01  -2.2540063903369116e+01  -2.2459902054907602e+01  -2.2380167538069440e+01  -2.2300024573152928e+01  -2.2220123163468898e+01  -2.2139932537524956e+01  -2.2060688176298516e+01  -2.1979423231440133e+01  -2.1900167548910812e+01  -2.1820124207298136e+01  -2.1739557031905736e+01  -2.1660584353324186e+01  -2.1579974418202703e+01  -2.1500098277192247e+01  -2.1420090704759126e+01  -2.1340186093379575e+01  -2.1259270151744822e+01  -2.1180931988695004e+01  -2.1099924815773960e+01  -2.1020254322722600e+01  -2.0940133908082156e+01  -2.0859660125811576e+01  -2.0780514933104595e+01  -2.0700043093975470e+01  -2.0620116781747644e+01  -2.0539944770372287e+01  -2.0460231368160521e+01  -2.0380067866325366e+01  -2.0300150397607354e+01  -2.0220087096244491e+01  -2.0140040281472110e+01  -2.0060159912836458e+01  -1.9980067967691248e+01  -1.9900132198777762e+01  -1.9820093299160142e+01  -1.9740185910279486e+01  -1.9659511056973546e+01  -1.9580654911767141e+01  -1.9500009415952338e+01  -1.9420167723268783e+01  -1.9339571994467576e+01  -1.9260590697669290e+01  -1.9180122011748676e+01  -1.9099457489182011e+01  -1.9020684374555394e+01  -1.8940003030026809e+01  -1.8860095171974478e+01  -1.8779926518793403e+01  -1.8700220196476643e+01  -1.8620054831893359e+01  -1.8540019092708970e+01  -1.8460122733722532e+01  -1.8380068837567226e+01  -1.8299975810961392e+01  -1.8220134899475401e+01  -1.8140063936502806e+01  -1.8059897909538542e+01  -1.7980193275322605e+01  -1.7900046984341305e+01  -1.7819771011708905e+01  -1.7740335905761846e+01  -1.7659886695217192e+01  -1.7580250036554755e+01  -1.7499965317393425e+01  -1.7420321814892336e+01  -1.7339720681033565e+01  -1.7260094823625725e+01  -1.7179501694723676e+01  -1.7100538356891150e+01  -1.7019833011871032e+01  -1.6940185888989944e+01  -1.6859978686329601e+01  -1.6779834937754011e+01  -1.6700177907041112e+01  -1.6619869342149673e+01  -1.6540207762281252e+01  -1.6459874962691256e+01  -1.6380280782487816e+01  -1.6299706197374274e+01  -1.6220013214962147e+01  -1.6139964623984817e+01  -1.6059961506515378e+01  -1.59799822