<?xml version="1.0"?>
<VTKFile type="UnstructuredGrid"  version="0.1"  >
<UnstructuredGrid>
<Piece  NumberOfPoints="5161" NumberOfCells="8120">
<Points>
<DataArray  type="Float64"  NumberOfComponents="3"  format="ascii">0 0.01 0  0 0 0  0.01 0 0  0.02 0 0  0.03 0 0  0.04 0 0  0.05 0 0  0.06 0 0  0.07000000000000001 0 0  0.08 0 0  0.09 0 0  0.1 0 0  0.11 0 0  0.12 0 0  0.13 0 0  0.14 0 0  0.15 0 0  0.16 0 0  0.17 0 0  0.18 0 0  0.19 0 0  0.2 0 0  0.21 0 0  0.22 0 0  0.23 0 0  0.24 0 0  0.25 0 0  0.26 0 0  0.27 0 0  0.28 0 0  0.29 0 0  0.3 0 0  0.31 0 0  0.32 0 0  0.33 0 0  0.34 0 0  0.35 0 0  0.36 0 0  0.37 0 0  0.38 0 0  0.39 0 0  0.4 0 0  0.41 0 0  0.42 0 0  0.43 0 0  0.44 0 0  0.45 0 0  0.46 0 0  0.47 0 0  0.48 0 0  0.49 0 0  0.5 0 0  0.51 0 0  0.52 0 0  0.53 0 0  0.54 0 0  0.55 0 0  0.5600000000000001 0 0  0.57 0 0  0.58 0 0  0.59 0 0  0.6 0 0  0.61 0 0  0.62 0 0  0.63 0 0  0.64 0 0  0.65 0 0  0.66 0 0  0.67 0 0  0.68 0 0  0.6899999999999999 0 0  0.7 0 0  0.71 0 0  0.72 0 0  0.73 0 0  0.74 0 0  0.75 0 0  0.76 0 0  0.77 0 0  0.78 0 0  0.79 0 0  0.8 0 0  0.8100000000000001 0 0  0.82 0 0  0.83 0 0  0.84 0 0  0.85 0 0  0.86 0 0  0.87 0 0  0.88 0 0  0.89 0 0  0.9 0 0  0.91 0 0  0.92 0 0  0.93 0 0  0.9399999999999999 0 0  0.95 0 0  0.96 0 0  0.97 0 0  0.98 0 0  0.99 0 0  1 0 0  1.01 0 0  1.02 0 0  1.03 0 0  1.04 0 0  1.05 0 0  1.06 0 0  1.07 0 0  1.08 0 0  1.09 0 0  1.1 0 0  1.11 0 0  1.12 0 0  1.13 0 0  1.14 0 0  1.15 0 0  1.16 0 0  1.17 0 0  1.18 0 0  1.19 0 0  1.2 0 0  1.21 0 0  1.22 0 0  1.23 0 0  1.24 0 0  1.25 0 0  1.26 0 0  1.27 0 0  1.28 0 0  1.29 0 0  1.3 0 0  1.31 0 0  1.32 0 0  1.33 0 0  1.34 0 0  1.35 0 0  1.36 0 0  1.37 0 0  1.38 0 0  1.39 0 0  1.4 0 0  1.41 0 0  1.42 0 0  1.43 0 0  1.44 0 0  1.45 0 0  1.46 0 0  1.47 0 0  1.48 0 0  1.49 0 0  1.5 0 0  1.51 0 0  1.52 0 0  1.53 0 0  1.54 0 0  1.55 0 0  1.56 0 0  1.57 0 0  1.58 0 0  1.59 0 0  1.6 0 0  1.61 0 0  1.62 0 0  1.63 0 0  1.64 0 0  1.65 0 0  1.66 0 0  1.67 0 0  1.68 0 0  1.69 0 0  1.7 0 0  1.71 0 0  1.72 0 0  1.73 0 0  1.74 0 0  1.75 0 0  1.76 0 0  1.77 0 0  1.78 0 0  1.79 0 0  1.8 0 0  1.81 0 0  1.82 0 0  1.83 0 0  1.84 0 0  1.85 0 0  1.86 0 0  1.87 0 0  1.88 0 0  1.89 0 0  1.9 0 0  1.91 0 0  1.92 0 0  1.93 0 0  1.94 0 0  1.95 0 0  1.96 0 0  1.97 0 0  1.98 0 0  1.99 0 0  2 0 0  2.01 0 0  2.02 0 0  2.03 0 0  2.04 0 0  2.05 0 0  2.06 0 0  2.07 0 0  2.08 0 0  2.09 0 0  2.1 0 0  2.11 0 0  2.12 0 0  2.13 0 0  2.14 0 0  2.15 0 0  2.16 0 0  2.17 0 0  2.18 0 0  2.19 0 0  2.2 0 0  2.21 0 0  2.22 0 0  2.23 0 0  2.24 0 0  2.25 0 0  2.26 0 0  2.27 0 0  2.28 0 0  2.29 0 0  2.3 0 0  2.31 0 0  2.32 0 0  2.33 0 0  2.34 0 0  2.35 0 0  2.36 0 0  2.37 0 0  2.38 0 0  2.39 0 0  2.4 0 0  2.41 0 0  2.42 0 0  2.43 0 0  2.44 0 0  2.45 0 0  2.46 0 0  2.47 0 0  2.48 0 0  2.49 0 0  2.5 0 0  2.51 0 0  2.52 0 0  2.53 0 0  2.54 0 0  2.55 0 0  2.56 0 0  2.57 0 0  2.58 0 0  2.59 0 0  2.6 0 0  2.61 0 0  2.62 0 0  2.63 0 0  2.64 0 0  2.65 0 0  2.66 0 0  2.67 0 0  2.68 0 0  2.69 0 0  2.7 0 0  2.71 0 0  2.72 0 0  2.73 0 0  2.74 0 0  2.75 0 0  2.76 0 0  2.77 0 0  2.78 0 0  2.79 0 0  2.8 0 0  2.81 0 0  2.82 0 0  2.83 0 0  2.84 0 0  2.85 0 0  2.86 0 0  2.87 0 0  2.88 0 0  2.89 0 0  2.9 0 0  2.91 0 0  2.92 0 0  2.93 0 0  2.94 0 0  2.95 0 0  2.96 0 0  2.97 0 0  2.98 0 0  2.99 0 0  3 0 0  3.01 0 0  3.02 0 0  3.03 0 0  3.04 0 0  3.05 0 0  3.06 0 0  3.07 0 0  3.08 0 0  3.09 0 0  3.1 0 0  3.11 0 0  3.12 0 0  3.13 0 0  3.14 0 0  3.15 0 0  3.16 0 0  3.17 0 0  3.18 0 0  3.19 0 0  3.2 0 0  3.21 0 0  3.22 0 0  3.23 0 0  3.24 0 0  3.25 0 0  3.26 0 0  3.27 0 0  3.28 0 0  3.29 0 0  3.3 0 0  3.31 0 0  3.32 0 0  3.33 0 0  3.34 0 0  3.35 0 0  3.36 0 0  3.37 0 0  3.38 0 0  3.39 0 0  3.4 0 0  3.41 0 0  3.42 0 0  3.43 0 0  3.44 0 0  3.45 0 0  3.46 0 0  3.47 0 0  3.48 0 0  3.49 0 0  3.5 0 0  3.51 0 0  3.52 0 0  3.53 0 0  3.54 0 0  3.55 0 0  3.56 0 0  3.57 0 0  3.58 0 0  3.59 0 0  3.6 0 0  3.61 0 0  3.62 0 0  3.63 0 0  3.64 0 0  3.65 0 0  3.66 0 0  3.67 0 0  3.68 0 0  3.69 0 0  3.7 0 0  3.71 0 0  3.72 0 0  3.73 0 0  3.74 0 0  3.75 0 0  3.76 0 0  3.77 0 0  3.78 0 0  3.79 0 0  3.8 0 0  3.81 0 0  3.82 0 0  3.83 0 0  3.84 0 0  3.85 0 0  3.86 0 0  3.87 0 0  3.88 0 0  3.89 0 0  3.9 0 0  3.91 0 0  3.92 0 0  3.93 0 0  3.94 0 0  3.95 0 0  3.96 0 0  3.97 0 0  3.98 0 0  3.99 0 0  4 0 0  4.01 -0.03141463462364068 0  4.02 -0.06282151815625525 0  4.03 -0.09421290141928611 0  4.04 -0.1255810390586269 0  4.05 -0.1569181914556893 0  4.06 -0.1882166266370274 0  4.07 -0.2194686221820914 0  4.08 -0.2506664671286087 0  4.09 -0.2818024638751649 0  4.1 -0.3128689300804606 0  4.11 -0.34385820055882 0  4.12 -0.3747626291714495 0  4.13 -0.4055745907130247 0  4.14 -0.4362864827930841 0  4.15 -0.4668907277118119 0  4.16 -0.49737977432971 0  4.17 -0.5277460999307455 0  4.18 -0.5579822120784577 0  4.19 -0.588080650464609 0  4.2 -0.6180339887498953 0  4.21 -0.6478348363962988 0  4.22 -0.677475840490582 0  4.23 -0.7069496875585155 0  4.24 -0.7362491053693565 0  4.25 -0.7653668647301796 0  4.26 -0.7942957812695606 0  4.27 -0.8230287172102163 0  4.28 -0.851558583130146 0  4.29 -0.8798783397118303 0  4.3 -0.9079809994790931 0  4.31 -0.9358596285211457 0  4.32 -0.9635073482034314 0  4.33 -0.9909173368648152 0  4.34 -1.018082831500742 0  4.35 -1.044997129431897 0  4.36 -1.071653589957994 0  4.37 -1.098045635996264 0  4.38 -1.124166755704261 0  4.39 -1.150010504086556 0  4.4 -1.175570504584947 0  4.41 -1.200840450651768 0  4.42 -1.225814107305953 0  4.43 -1.250485312671409 0  4.44 -1.27484797949738 0  4.45 -1.298896096660368 0  4.46 -1.322623730647304 0  4.47 -1.346025027019546 0  4.48 -1.369094211857378 0  4.49 -1.391825593184629 0  4.5 -1.414213562373095 0  4.51 -1.436252595526377 0  4.52 -1.457937254842822 0  4.53 -1.47926218995722 0  4.54 -1.500222139260919 0  4.55 -1.520811931200061 0  4.56 -1.541026485551578 0  4.57 -1.56086081467666 0  4.58 -1.580310024751381 0  4.59 -1.599369316974181 0  4.6 -1.618033988749894 0  4.61 -1.636299434850047 0  4.62 -1.654161148549124 0  4.63 -1.67161472273654 0  4.64 -1.688655851004029 0  4.65 -1.705280328708185 0  4.66 -1.721484054007887 0  4.67 -1.737263028876382 0  4.68 -1.752613360087727 0  4.69 -1.767531260177387 0  4.7 -1.782013048376736 0  4.71 -1.796055151521231 0  4.72 -1.809654104932039 0  4.73 -1.822806553270891 0  4.74 -1.835509251367963 0  4.75 -1.847759065022573 0  4.76 -1.859552971776502 0  4.77 -1.870888061659734 0  4.78 -1.881761537908451 0  4.79 -1.892170717655091 0  4.8 -1.902113032590307 0  4.81 -1.91158602959666 0  4.82 -1.920587371353886 0  4.83 -1.929114836915596 0  4.84 -1.937166322257262 0  4.85 -1.944739840795353 0  4.86 -1.951833523877495 0  4.87 -1.958445621243532 0  4.88 -1.964574501457377 0  4.89 -1.970218652309548 0  4.9 -1.975376681190276 0  4.91 -1.980047315433115 0  4.92 -1.984229402628956 0  4.93 -1.987921910910359 0  4.94 -1.99112392920616 0  4.95 -1.993834667466256 0  4.96 -1.996053456856543 0  4.97 -1.99777974992394 0  4.98 -1.999013120731463 0  4.99 -1.999753264963321 0  5 -2 0  5.01 -1.999753264963321 0  5.02 -1.999013120731463 0  5.03 -1.99777974992394 0  5.04 -1.996053456856543 0  5.05 -1.993834667466256 0  5.06 -1.99112392920616 0  5.07 -1.987921910910359 0  5.08 -1.984229402628956 0  5.09 -1.980047315433115 0  5.1 -1.975376681190276 0  5.11 -1.970218652309548 0  5.12 -1.964574501457377 0  5.13 -1.958445621243532 0  5.14 -1.951833523877495 0  5.15 -1.944739840795353 0  5.16 -1.937166322257262 0  5.17 -1.929114836915596 0  5.18 -1.920587371353886 0  5.19 -1.91158602959666 0  5.2 -1.902113032590307 0  5.21 -1.892170717655091 0  5.22 -1.881761537908451 0  5.23 -1.870888061659734 0  5.24 -1.859552971776503 0  5.25 -1.847759065022573 0  5.26 -1.835509251367963 0  5.27 -1.822806553270891 0  5.28 -1.809654104932039 0  5.29 -1.796055151521231 0  5.3 -1.782013048376736 0  5.31 -1.767531260177387 0  5.32 -1.752613360087727 0  5.33 -1.737263028876382 0  5.34 -1.721484054007888 0  5.35 -1.705280328708185 0  5.36 -1.68865585100403 0  5.37 -1.67161472273654 0  5.38 -1.654161148549124 0  5.39 -1.636299434850047 0  5.4 -1.618033988749894 0  5.41 -1.599369316974181 0  5.42 -1.580310024751381 0  5.43 -1.56086081467666 0  5.44 -1.541026485551578 0  5.45 -1.520811931200061 0  5.46 -1.500222139260919 0  5.47 -1.47926218995722 0  5.48 -1.457937254842822 0  5.49 -1.436252595526377 0  5.5 -1.414213562373095 0  5.51 -1.39182559318463 0  5.52 -1.369094211857378 0  5.53 -1.346025027019547 0  5.54 -1.322623730647304 0  5.55 -1.298896096660368 0  5.56 -1.27484797949738 0  5.57 -1.25048531267141 0  5.58 -1.225814107305953 0  5.59 -1.200840450651769 0  5.6 -1.175570504584947 0  5.61 -1.150010504086557 0  5.62 -1.124166755704261 0  5.63 -1.098045635996264 0  5.64 -1.071653589957994 0  5.65 -1.044997129431897 0  5.66 -1.018082831500742 0  5.67 -0.9909173368648155 0  5.68 -0.9635073482034312 0  5.69 -0.935859628521146 0  5.7 -0.9079809994790929 0  5.71 -0.8798783397118306 0  5.72 -0.8515585831301458 0  5.73 -0.8230287172102166 0  5.74 -0.7942957812695605 0  5.75 -0.7653668647301798 0  5.76 -0.7362491053693571 0  5.77 -0.7069496875585156 0  5.78 -0.6774758404905826 0  5.79 -0.6478348363962989 0  5.8 -0.6180339887498959 0  5.81 -0.5880806504646091 0  5.82 -0.5579822120784582 0  5.83 -0.5277460999307456 0  5.84 -0.4973797743297105 0  5.85 -0.4668907277118119 0  5.86 -0.4362864827930846 0  5.87 -0.4055745907130247 0  5.88 -0.37476262917145 0  5.89 -0.34385820055882 0  5.9 -0.3128689300804611 0  5.91 -0.2818024638751648 0  5.92 -0.2506664671286091 0  5.93 -0.2194686221820913 0  5.94 -0.1882166266370278 0  5.95 -0.1569181914556892 0  5.96 -0.1255810390586272 0  5.97 -0.09421290141928591 0  5.98 -0.06282151815625558 0  5.99 -0.03141463462364053 0  6 -2.449293598294706e-16 0  6.01 0 0  6.02 0 0  6.03 0 0  6.04 0 0  6.05 0 0  6.06 0 0  6.07 0 0  6.08 0 0  6.09 0 0  6.1 0 0  6.11 0 0  6.12 0 0  6.13 0 0  6.14 0 0  6.15 0 0  6.16 0 0  6.17 0 0  6.18 0 0  6.19 0 0  6.2 0 0  6.21 0 0  6.22 0 0  6.23 0 0  6.24 0 0  6.25 0 0  6.26 0 0  6.27 0 0  6.28 0 0  6.29 0 0  6.3 0 0  6.31 0 0  6.32 0 0  6.33 0 0  6.34 0
[...]
<PointData  Scalars="f_2816"> 
<DataArray  type="Float64"  Name="f_2816"  format="ascii">1.0000000000000000e+00  1.0000000000000000e+00  9.7600684089721090e-01  9.5863358960863543e-01  9.4397958329588383e-01  9.3129859071083532e-01  9.2047429927626001e-01  9.1065061407434533e-01  9.0165718448467658e-01  8.9344136404924979e-01  8.8591888602009483e-01  8.7887120390405760e-01  8.7226360318001217e-01  8.6603635033647652e-01  8.6013569843730209e-01  8.5458349438199765e-01  8.4932299585840765e-01  8.4427044276873286e-01  8.3940453828600781e-01  8.3476399063299966e-01  8.3030343992482192e-01  8.2601639859576892e-01  8.2189328647933890e-01  8.1796068794812082e-01  8.1418506222316400e-01  8.1048679479693930e-01  8.0693872806512434e-01  8.0350799954015062e-01  8.0017631453194316e-01  7.9693249942821287e-01  7.9379964044554974e-01  7.9074821370259940e-01  7.8777523542991901e-01  7.8487358000925245e-01  7.8206514836934216e-01  7.7932272900136668e-01  7.7661056425851827e-01  7.7398455491467710e-01  7.7141915573472608e-01  7.6892572229709910e-01  7.6648135500367298e-01  7.6410176385131634e-01  7.6176239199832740e-01  7.5945784160881513e-01  7.5718086986384292e-01  7.5495513459522734e-01  7.5275926231777734e-01  7.5060893038624388e-01  7.4849562007239334e-01  7.4642552788637129e-01  7.4439649116474937e-01  7.4242290321971927e-01  7.4048697777379369e-01  7.3856722526638252e-01  7.3668740547599831e-01  7.3483214044220002e-01  7.3301638959210336e-01  7.3122396621364705e-01  7.2945578936103372e-01  7.2770576853992386e-01  7.2599563236949805e-01  7.2430823734363170e-01  7.2264709364425384e-01  7.2100618618772583e-01  7.1939703955646239e-01  7.1780585974692879e-01  7.1622542271100320e-01  7.1467438844329534e-01  7.1313724091048880e-01  7.1161567812392801e-01  7.1011008858742830e-01  7.0863152203793933e-01  7.0716692840025830e-01  7.0572466688199542e-01  7.0429501580041143e-01  7.0288159128629113e-01  7.0148179359797613e-01  7.0010347828070074e-01  6.9873509313405713e-01  6.9739202382278154e-01  6.9606109733873012e-01  6.9474474171450906e-01  6.9343968187592397e-01  6.9214126720411673e-01  6.9086277481954017e-01  6.8959232112369129e-01  6.8833893630861587e-01  6.8709918046673313e-01  6.8588045069438452e-01  6.8467217218708110e-01  6.8348508785492346e-01  6.8230741415057994e-01  6.8114128152424214e-01  6.7998354555756457e-01  6.7883065228705430e-01  6.7769360766076003e-01  6.7656172417401006e-01  6.7543858734279139e-01  6.7432232585137375e-01  6.7322184827838316e-01  6.7212701989791457e-01  6.7103363995642062e-01  6.6995213556475008e-01  6.6887307326442969e-01  6.6780618640980483e-01  6.6674233878900246e-01  6.6568198710393134e-01  6.6462554637837279e-01  6.6358242924477229e-01  6.6254290771959246e-01  6.6150480585966132e-01  6.6047967641088079e-01  6.5945833376894958e-01  6.5844933417415308e-01  6.5744403004209906e-01  6.5644125500056016e-01  6.5545132624493163e-01  6.5446471752839042e-01  6.5348073586293776e-01  6.5250207993755083e-01  6.5153560258678611e-01  6.5057356244633335e-01  6.4962191126817925e-01  6.4867076288581105e-01  6.4772815301998343e-01  6.4678556038136870e-01  6.4584777327697263e-01  6.4491293846870712e-01  6.4398072461069977e-01  6.4306039153133754e-01  6.4214312424800857e-01  6.4123967525859216e-01  6.4034082914297863e-01  6.3944985900566254e-01  6.3856418919500402e-01  6.3767993655066646e-01  6.3680389670256621e-01  6.3592987800287104e-01  6.3506509188364724e-01  6.3420128474673143e-01  6.3334378688403659e-01  6.3248882489877911e-01  6.3163809550026162e-01  6.3079114870121622e-01  6.2995388832852539e-01  6.2911928360222902e-01  6.2828497344764400e-01  6.2745739078483798e-01  6.2663074457311996e-01  6.2581252939482357e-01  6.2499464083553447e-01  6.2418000736042678e-01  6.2336544869651678e-01  6.2255797236094024e-01  6.2175065226348092e-01  6.2094606041132350e-01  6.2014171949491803e-01  6.1933817523095125e-01  6.1854187207246225e-01  6.1774582725763916e-01  6.1695257107000634e-01  6.1616283978755415e-01  6.1538090120119859e-01  6.1460021336487658e-01  6.1382042417575056e-01  6.1304803784244699e-01  6.1227573868939555e-01  6.1151186455525874e-01  6.1074862557028142e-01  6.0999013302679728e-01  6.0923473016533236e-01  6.0848735966058975e-01  6.0774011657896909e-01  6.0699341750857783e-01  6.0625477228115987e-01  6.0551748803818395e-01  6.0478295247830149e-01  6.0405012770208233e-01  6.0332476097317045e-01  6.0260012838241050e-01  6.0187494245814144e-01  6.0115526778285167e-01  6.0043604674705797e-01  5.9972223058120555e-01  5.9900667392355145e-01  5.9828875747992172e-01  5.9757628289216158e-01  5.9686303103583738e-01  5.9615370604768225e-01  5.9544362109292448e-01  5.9473532747847813e-01  5.9402865389377946e-01  5.9332813792891403e-01  5.9262650639975489e-01  5.9192308271400229e-01  5.9122518633152077e-01  5.9052683642001225e-01  5.8983185370117541e-01  5.8913746404435630e-01  5.8844400628894644e-01  5.8775743826101512e-01  5.8707140994927531e-01  5.8638667148491863e-01  5.8570231210299006e-01  5.8502202732161090e-01  5.8433892823193911e-01  5.8365343181222118e-01  5.8297386960040853e-01  5.8229439267219063e-01  5.8161949199760443e-01  5.8094546952899218e-01  5.8027345340095615e-01  5.7960367750252773e-01  5.7893857885436861e-01  5.7827257584827019e-01  5.7761135412895170e-01  5.7694863061162271e-01  5.7628846954900326e-01  5.7562792299408561e-01  5.7496820240450675e-01  5.7430947304311075e-01  5.7365562288873506e-01  5.7300128342213819e-01  5.7235158316764667e-01  5.7169963539511759e-01  5.7104495862699189e-01  5.7039348966693848e-01  5.6973967592405106e-01  5.6908538094417149e-01  5.6843173042015005e-01  5.6778458844121116e-01  5.6713757206636706e-01  5.6648945632134873e-01  5.6584820936553670e-01  5.6520856673319653e-01  5.6456869982246449e-01  5.6393319433675637e-01  5.6329760274470286e-01  5.6266681227616533e-01  5.6203479294183833e-01  5.6140390552919794e-01  5.6077318391208175e-01  5.6014756134887311e-01  5.5952088130459532e-01  5.5889212642519248e-01  5.5826788579135456e-01  5.5764283747273080e-01  5.5701883420429343e-01  5.5639459817222192e-01  5.5577612235544971e-01  5.5515653341992133e-01  5.5454192098077881e-01  5.5392659363380292e-01  5.5331210019943178e-01  5.5269760651059630e-01  5.5208542598996013e-01  5.5146935695639088e-01  5.5085012506597286e-01  5.5023557427782177e-01  5.4962041424880259e-01  5.4900895087858859e-01  5.4839782303253870e-01  5.4778768888574247e-01  5.4717942378048823e-01  5.4657589889259361e-01  5.4597127296462378e-01  5.4536997938918785e-01  5.4476720079002550e-01  5.4416509545258773e-01  5.4356342877867703e-01  5.4296602989184473e-01  5.4236744674503212e-01  5.4176740467395690e-01  5.4117047204088364e-01  5.4057198111640681e-01  5.3997249825206572e-01  5.3937588534315450e-01  5.3877786238929304e-01  5.3818506073638350e-01  5.3759128317608273e-01  5.3700118298670507e-01  5.3641077026016704e-01  5.3581950574060100e-01  5.3523192426883415e-01  5.3464400819485181e-01  5.3405990357629918e-01  5.3347350711654529e-01  5.3289080879904305e-01  5.3230648771776268e-01  5.3172467157639125e-01  5.3114340093356283e-01  5.3056247907515319e-01  5.2998298187728099e-01  5.2940758012616029e-01  5.2883074944691710e-01  5.2825306826097884e-01  5.2767893029414437e-01  5.2710348335758483e-01  5.2652845151275329e-01  5.2595369909238954e-01  5.2538498966936809e-01  5.2481612083759199e-01  5.2425302372148019e-01  5.2369069775497634e-01  5.2312880655823268e-01  5.2257182462226259e-01  5.2201440419666489e-01  5.2145702451682574e-01  5.2090055452709993e-01  5.2034790281087695e-01  5.1979413678715880e-01  5.1924295473246296e-01  5.1869054602405040e-01  5.1813884486590689e-01  5.1759222905265534e-01  5.1704502811715869e-01  5.1649949651624516e-01  5.1595476546380015e-01  5.1541088933474011e-01  5.1487233345898331e-01  5.1433429939407882e-01  5.1379632520293517e-01  5.1326287762080414e-01  5.1272858841286895e-01  5.1219755104421150e-01  5.1166856882111278e-01  5.1114096380435148e-01  5.1061946069483721e-01  5.1009911771823735e-01  5.0958193983132838e-01  5.0906740195296407e-01  5.0856016038719210e-01  5.0805552724358549e-01  5.0755520162392842e-01  5.0705825694853046e-01  5.0656329322142157e-01  5.0607513250456637e-01  5.0559012161857275e-01  5.0511215450796987e-01  5.0463649599435956e-01  5.0416403219456818e-01  5.0369337851749685e-01  5.0322439783812400e-01  5.0276236269245711e-01  5.0230314063866810e-01  5.0184827020864264e-01  5.0139866095537355e-01  5.0095796741075305e-01  5.0052225023381836e-01  5.0009440396219274e-01  4.9967146581434435e-01  4.9925477271937529e-01  4.9884405277065602e-01  4.9844400060360322e-01  4.9805105101314778e-01  4.9766610781306708e-01  4.9728881306988976e-01  4.9692305459770347e-01  4.9656480681254744e-01  4.9621849347154628e-01  4.9588093957757856e-01  4.9555515745062428e-01  4.9524099740815603e-01  4.9494156836559078e-01  4.9465404098059312e-01  4.9437278605622620e-01  4.9410528857900360e-01  4.9384909870859461e-01  4.9360814381583029e-01  4.9338001814294824e-01  4.9316591863060705e-01  4.9296596844221435e-01  4.9278235495816153e-01  4.9261318409534788e-01  4.9246191234294662e-01  4.9232700879384300e-01  4.9220872746605332e-01  4.9210660708562143e-01  4.9202324292019833e-01  4.9195810543012380e-01  4.9191503230232486e-01  4.9189432876761374e-01  4.9189386367289589e-01  4.9191365178818919e-01  4.9195247579596763e-01  4.9201055770445523e-01  4.9208960491922865e-01  4.9219043981981753e-01  4.9231082215055133e-01  4.9245064191001509e-01  4.9260765959975339e-01  4.9278351990671948e-01  4.9297270740545546e-01  4.9317698136208987e-01  4.9339043540902772e-01  4.9360815639300881e-01  4.9379954108367352e-01  4.9396628427051054e-01  4.9406879736771148e-01  4.9397481379896935e-01  4.9363374430970680e-01  4.9250399478175944e-01  4.7359783896401125e-01  4.5776231861502348e-01  4.4398877717794083e-01  4.3086443588094780e-01  4.1873347953963364e-01  4.0722847421142916e-01  3.9596775848858912e-01  3.8526006525271156e-01  3.7480443268550778e-01  3.6467088011994697e-01  3.5478128815446180e-01  3.4533301393708976e-01  3.3602933891204728e-01  3.2697430557253615e-01  3.1807610140435144e-01  3.0956577070874636e-01  3.0115582091847964e-01  2.9299899720019934e-01  2.8500125914134417e-01  2.7735120476504427e-01  2.6983136918171990e-01  2.6246353990932825e-01  2.5542800376803310e-01  2.4850990849467078e-01  2.4174727204341950e-01  2.3519420417428530e-01  2.2891869127364647e-01  2.2279945027097281e-01  2.1697899852599925e-01  2.1125933891596599e-01  2.0567671736684337e-01  2.0035717466095579e-01  1.9515370444260163e-01  1.9012391428903516e-01  1.8525522213320347e-01  1.8061794637740686e-01  1.7608575616157854e-01  1.7169312344209597e-01  1.6744407974281536e-01  1.6339675515238100e-01  1.5943903435067283e-01  1.5567467773996377e-01  1.5200100619485857e-01  1.4844764838619726e-01  1.4507726275909041e-01  1.4178599185578353e-01  1.3863047420691352e-01  1.3558255883098827e-01  1.3268519765202244e-01  1.2986016266507125e-01  1.2715374023159504e-01  1.2453528286428886e-01  1.2205522608237981e-01  1.1964224532496330e-01  1.1732522016687626e-01  1.1509103721057043e-01  1.1298068529483719e-01  1.1093658492042714e-01  1.0896467626908972e-01  1.0709693714286052e-01  1.0528645758695664e-01  1.0354801198636798e-01  1.0190855090269488e-01  1.0032098927281735e-01  9.8805748925808609e-02  9.7363929514083208e-02  9.6008980438003960e-02  9.4699444089297022e-02  9.3444203103520154e-02  9.2259775732414839e-02  9.1123828153927430e-02  9.0062224296382318e-02  8.9037820584322622e-02  8.8072998290065527e-02  8.7153998720088582e-02  8.6294903082497917e-02  8.5477944463558900e-02  8.4723256767886002e-02  8.4001614025511276e-02  8.3331215801473235e-02  8.2695312154340672e-02  8.2104353798827009e-02  8.1562355766367792e-02  8.1047668825502836e-02  8.0574221985008965e-02  8.0137132052928606e-02  7.9744665574068035e-02  7.9379525556025815e-02  7.9049254619143097e-02  7.8754244672490994e-02  7.8488549739584745e-02  7.8258433851720433e-02  7.8051966034385439e-02  7.7877755557871089e-02  7.7726394288801265e-02  7.7602552960131840e-02  7.7505018526100894e-02  7.7435077209302428e-02  7.7388678434476055e-02  7.7372692831128700e-02  7.7381312890295040e-02  7.7414967777486215e-02  7.7473837323626796e-02  7.7558922118169352e-02  7.7665421528053377e-02  7.7799119891648505e-02  7.7964896960296445e-02  7.8155279692810359e-02  7.8377313374277502e-02  7.8622736396559922e-02  7.8903920346247811e-02  7.9213192942049676e-02  7.9559882915514607e-02  7.9939301157204656e-02  8.0355769001381888e-02  8.0797591107634167e-02  8.1282387682094434e-02  8.1794597973867955e-02  8.2353753165419125e-02  8.2949361391872589e-02  8.3591251810853681e-02  8.4273686252545152e-02  8.4989085845527335e-02  8.5762248991805234e-02  8.6579142099537723e-02  8.7447306462751936e-02  8.8346880510908554e-02  8.9307154891734575e-02  9.0316136688866649e-02  9.1361159019238969e-02  9.2472996596831697e-02  9.3623791930105060e-02  9.4847012117375243e-02  9.6130317914371682e-02  9.7471124023941189e-02  9.8852864862175718e-02  1.0031590296778915e-01  1.0183967114339036e-01  1.0340871797890053e-01  1.0505391393637846e-01  1.0674243593252813e-01  1.0852338522550571e-01  1.1035669254711418e-01  1.1227680681979683e-01  1.1426655201747969e-01  1.1632977697321178e-01  1.1843579426286356e-01  1.2064210148164863e-01  1.2291886835076016e-01  1.2524182238649018e-01  1.2765647609769679e-01  1.3011675915971385e-01  1.3268933010702319e-01  1.3531581722948099e-01  1.3802579968940926e-01  1.4076779128171232e-01  1.4363130253663456e-01  1.4654827499851533e-01  1.4956978877359797e-01  1.5265990406759597e-01  1.5578943330408354e-01  1.5902260649552213e-01  1.6229372195878572e-01  1.6569294777953447e-01  1.6916998682742193e-01  1.7271054724267995e-01  1.7627346623834156e-01  1.7997251290061647e-01  1.8367830061009408e-01  1.8751502126649017e-01  1.9135521211313292e-01  1.9532833203718888e-01  1.9934609027328035e-01  2.0347539732673942e-01  2.0765374264811076e-01  2.1184722132065870e-01  2.1617011024455848e-01  2.2050691700767044e-01  2.2499832385166194e-01  2.2955195817345972e-01  2.3421385355452096e-01  2.3888801391237874e-01  2.4372418616190397e-01  2.4865803105428286e-01  2.5366023738615795e-01  2.5882870286954357e-01  2.6406625539951245e-01  2.6953511106994754e-01  2.7515802339034395e-01  2.8093326644966782e-01  2.8694975683347385e-01  2.9312777274508695e-01  2.9968405234402762e-01  3.0661442853684356e-01  3.1395902364741102e-01  3.2193651658098238e-01  3.3061115495069043e-01  3.4030843099002961e-01  3.5182712586519788e-01  3.6555552028099442e-01  3.6617182504150442e-01  3.6650884152528068e-01  3.6656857571464657e-01  3.6651405882505228e-01  3.6638149029948541e-01  3.6620293720803276e-01  3.6597681914480479e-01  3.6573157980493104e-01  3.6546855163803277e-01  3.6518532380337859e-01  3.6489462510229564e-01  3.6459745497289747e-01  3.6429094498898562e-01  3.6398037492399776e-01  3.6366568983681402e-01  3.6335081315949769e-01  3.6303259915483838e-01  3.6271400217358024e-01  3.6239233352369377e-01  3.6206949036990405e-01  3.6174484758136594e-01  3.6142116251535994e-01  3.6109518203165553e-01  3.6076915403862064e-01  3.6044209121338155e-01  3.6011673302069869e-01  3.5978967128973088e-01  3.5946163878731979e-01  3.5913603089615775e-01  3.5880960520105204e-01  3.5848199795522961e-01  3.5815631334120163e-01  3.5782974505613135e-01  3.5750386483959518e-01  3.5717659189550016e-01  3.5684851507140219e-01  3.5652151741533022e-01  3.5619220945537078e-01  3.5586323117229696e-01  3.5553347436312216e-01  3.5520332068026628e-01  3.5487571381124255e-01  3.5454739989744455e-01  3.5421908319949097e-01  3.5389099942869767e-01  3.5356546179072662e-01  3.5323950600359549e-01  3.5291508479106176e-01  3.5258986396467612e-01  3.5226357711657563e-01  3.5193639596297932e-01  3.5160990894017141e-01  3.5128139391824725e-01  3.5095140273780967e-01  3.5062032761688117e-01  3.5029084512725894e-01  3.4995968070726824e-01  3.4963036373700179e-01  3.4930005854468732e-01  3.4896975918096146e-01  3.4863973193791786e-01  3.4831144448419366e-01  3.4798215577202840e-01  3.4765236864368176e-01  3.4732416856486448e-01  3.4699458453493415e-01  3.4666487268497287e-01  3.4633510960580571e-01  3.4600738870130482e-01  3.4567874374531760e-01  3.4534908890230709e-01  3.4502076286549221e-01  3.4469118765091611e-01  3.4436310513567897e-01  3.4403361919869629e-01  3.4370371404119265e-01  3.4337339286247626e-01  3.4304521952425354e-01  3.4271593187896132e-01  3.4238527773747313e-01  3.4205655850232580e-01  3.4172700165312841e-01  3.4139640496436718e-01  3.4106676313977374e-01  3.4073583095976190e-01  3.4040607793480504e-01  3.4007430462356553e-01  3.3974212638560308e-01  3.3940914000433026e-01  3.3907789390490123e-01  3.3874450320893490e-01  3.3841234138719845e-01  3.3807795858182432e-01  3.3774354700063869e-01  3.3740840195312405e-01  3.3707554589437111e-01  3.3674158955703931e-01  3.3640895546614513e-01  3.3607569197791964e-01  3.3574143317779648e-01  3.3540833429880529e-01  3.3507427534403195e-01  3.3474203766659788e-01  3.3440836947108887e-01  3.3407306984290552e-01  3.3373984389404182e-01  3.3340551301670979e-01  3.3307322621515828e-01  3.3274012571197459e-01  3.3240692990351733e-01  3.3207413581530315e-01  3.3174354045308352e-01  3.3141191122572466e-01  3.3107880378088334e-01  3.3074738833581574e-01  3.3041486097682049e-01  3.3008190870727011e-01  3.2974809680243611e-01  3.2941602526819558e-01  3.2908209617689271e-01  3.2874941924887091e-01  3.2841509818518116e-01  3.2807948889761612e-01  3.2774506282623184e-01  3.2740847404387452e-01  3.2707157009203042e-01  3.2673384005102646e-01  3.2639809968663375e-01  3.2606108744130841e-01  3.2572401966872461e-01  3.2538620666012902e-01  3.2505065071453698e-01  3.2471404275342541e-01  3.2437847848087209e-01  3.2404344865519497e-01  3.2371112520802509e-01  3.2337800031265690e-01  3.2304430814885687e-01  3.2271307814438438e-01  3.2238133222074211e-01  3.2204977155650089e-01  3.2171797350611486e-01  3.2138858950999799e-01  3.2105859234549888e-01  3.2072805452513137e-01  3.2039934440498508e-01  3.2006971021055164e-01  3.1973970204834595e-01  3.1940955990669045e-01  3.1908148478621762e-01  3.1875259884726059e-01  3.1842269328314693e-01  3.1809428777561105e-01  3.1776488360217708e-01  3.1743464312300124e-01  3.1710552849109619e-01  3.1677532802922204e-01  3.1644712432422095e-01  3.1611765439950057e-01  3.1578818216031368e-01  3.1545766058564506e-01  3.1512659418264788e-01  3.1479733393337989e-01  3.1446709106705456e-01  3.1413759488320919e-01  3.1380824770233035e-01  3.1348098031424432e-01  3.1315302114496574e-01  3.1282463602621424e-01  3.1249775587462986e-01  3.1216930425963324e-01  3.1184262426161424e-01  3.1151438362615907e-01  3.1118713288219907e-01  3.1085942423223561e-01  3.1053309019309999e-01  3.1020679530339640e-01  3.0988071704504067e-01  3.0955734790373052e-01  3.0923368141517699e-01  3.0891058937172189e-01  3.0858760323595985e-01  3.0826694976891567e-01  3.0794572106131363e-01  3.0762477687250439e-01  3.0730566248875368e-01  3.0698500123425188e-01  3.0666485498485430e-01  3.0634452624466518e-01  3.0602591441251703e-01  3.0570578351539363e-01  3.0538619297667940e-01  3.0506538948434075e-01  3.0474566650031787e-01  3.0442484679979909e-01  3.0410358317748698e-01  3.0378496289736340e-01  3.0346579596020390e-01  3.0314663306591877e-01  3.0282965011024626e-01  3.0251150984105762e-01  3.0219424292851155e-01  3.0187651414202032e-01  3.0155836049072560e-01  3.0123942446863194e-01  3.0092180174938876e-01  3.0060276917315371e-01  3.0028374066932600e-01  2.9996374703520912e-01  2.9964543601146160e-01  2.9932570213738718e-01  2.9900620283810464e-01  2.9868580721929594e-01  2.9836740171150539e-01  2.9804825717217848e-01  2.9772905472692590e-01  2.9741199031242249e-01  2.9709377383333135e-01  2.9677541461069573e-01  2.9645695978124614e-01  2.9614079806131444e-01  2.9582417809947986e-01  2.9550888832809058e-01  2.9519285625127689e-01  2.9487608929618669e-01  2.9456114349573992e-01  2.9424486836847674e-01  2.9392909314345