<?xml version="1.0"?>
<VTKFile type="UnstructuredGrid"  version="0.1"  >
<UnstructuredGrid>
<Piece  NumberOfPoints="5209" NumberOfCells="8216">
<Points>
<DataArray  type="Float64"  NumberOfComponents="3"  format="ascii">0 0.01 0  0 0 0  0.01 0 0  0.02 0 0  0.03 0 0  0.04 0 0  0.05 0 0  0.06 0 0  0.07000000000000001 0 0  0.08 0 0  0.09 0 0  0.1 0 0  0.11 0 0  0.12 0 0  0.13 0 0  0.14 0 0  0.15 0 0  0.16 0 0  0.17 0 0  0.18 0 0  0.19 0 0  0.2 0 0  0.21 0 0  0.22 0 0  0.23 0 0  0.24 0 0  0.25 0 0  0.26 0 0  0.27 0 0  0.28 0 0  0.29 0 0  0.3 0 0  0.31 0 0  0.32 0 0  0.33 0 0  0.34 0 0  0.35 0 0  0.36 0 0  0.37 0 0  0.38 0 0  0.39 0 0  0.4 0 0  0.41 0 0  0.42 0 0  0.43 0 0  0.44 0 0  0.45 0 0  0.46 0 0  0.47 0 0  0.48 0 0  0.49 0 0  0.5 0 0  0.51 0 0  0.52 0 0  0.53 0 0  0.54 0 0  0.55 0 0  0.5600000000000001 0 0  0.57 0 0  0.58 0 0  0.59 0 0  0.6 0 0  0.61 0 0  0.62 0 0  0.63 0 0  0.64 0 0  0.65 0 0  0.66 0 0  0.67 0 0  0.68 0 0  0.6899999999999999 0 0  0.7 0 0  0.71 0 0  0.72 0 0  0.73 0 0  0.74 0 0  0.75 0 0  0.76 0 0  0.77 0 0  0.78 0 0  0.79 0 0  0.8 0 0  0.8100000000000001 0 0  0.82 0 0  0.83 0 0  0.84 0 0  0.85 0 0  0.86 0 0  0.87 0 0  0.88 0 0  0.89 0 0  0.9 0 0  0.91 0 0  0.92 0 0  0.93 0 0  0.9399999999999999 0 0  0.95 0 0  0.96 0 0  0.97 0 0  0.98 0 0  0.99 0 0  1 0 0  1.01 0 0  1.02 0 0  1.03 0 0  1.04 0 0  1.05 0 0  1.06 0 0  1.07 0 0  1.08 0 0  1.09 0 0  1.1 0 0  1.11 0 0  1.12 0 0  1.13 0 0  1.14 0 0  1.15 0 0  1.16 0 0  1.17 -0.02094356823249068 0  1.18 -0.0837513074583984 0  1.19 -0.1464763942552626 0  1.2 -0.2090569265353062 0  1.21 -0.2714311448686081 0  1.22 -0.3335374934322039 0  1.23 -0.3953146807582517 0  1.24 -0.456701740221311 0  1.25 -0.517638090205041 0  1.26 -0.5780635938889428 0  1.27 -0.6379186185961396 0  1.28 -0.6971440946436301 0  1.29 -0.755681573636934 0  1.3 -0.8134732861516003 0  1.31 -0.8704621987446548 0  1.32 -0.9265920702397233 0  1.33 -0.9818075072302815 0  1.34 -1.03605401874626 0  1.35 -1.089278070030054 0  1.36 -1.141427135368863 0  1.37 -1.192449749931232 0  1.38 -1.24229556055662 0  1.39 -1.2909153754479 0  1.4 -1.338261212717716 0  1.41 -1.384286347740813 0  1.42 -1.428945359265606 0  1.43 -1.472194174239468 0  1.44 -1.513990111303512 0  1.45 -1.554291922913941 0  1.46 -1.593059836048392 0  1.47 -1.630255591457108 0  1.48 -1.665842481420199 0  1.49 -1.699785385973728 0  1.5 -1.732050807568877 0  1.51 -1.762606904129984 0  1.52 -1.791423520478826 0  1.53 -1.818472218094137 0  1.54 -1.843726303177001 0  1.55 -1.867160852994403 0  1.56 -1.888752740474962 0  1.57 -1.908480657032554 0  1.58 -1.926325133595316 0  1.59 -1.942268559819272 0  1.6 -1.956295201467611 0  1.61 -1.968391215938484 0  1.62 -1.978544665925977 0  1.63 -1.986745531200793 0  1.64 -1.992985718499009 0  1.65 -1.997259069509148 0  1.66 -1.999561366949691 0  1.67 -1.999890338731024 0  1.68 -1.998245660197717 0  1.69 -1.994628954448916 0  1.7 -1.989043790736547 0  1.71 -1.981495680942887 0  1.72 -1.97199207414101 0  1.73 -1.960542349243444 0  1.74 -1.947157805746321 0  1.75 -1.931851652578137 0  1.76 -1.914638995064135 0  1.77 -1.895536820019172 0  1.78 -1.874563978983783 0  1.79 -1.85174116961999 0  1.8 -1.827090915285202 0  1.81 -1.800637542804387 0  1.82 -1.77240715846243 0  1.83 -1.742427622240379 0  1.84 -1.710728520321013 0  1.85 -1.677341135890848 0  1.86 -1.642298418267408 0  1.87 -1.605634950382229 0  1.88 -1.56738691465168 0  1.89 -1.527592057269285 0  1.9 -1.486289650954789 0  1.91 -1.443520456196725 0  1.92 -1.399326681026732 0  1.93 -1.353751939365322 0  1.94 -1.306841207980212 0  1.95 -1.258640782099675 0  1.96 -1.209198229724751 0  1.97 -1.158562344685358 0  1.98 -1.106783098486689 0  1.99 -1.053911590993355 0  2 -1.000000000000001 0  2.01 -0.9451015297381098 0  2.02 -0.8892703583698556 0  2.03 -0.8325615845208041 0  2.04 -0.7750311729042063 0  2.05 -0.7167358990906021 0  2.06 -0.6577332934771668 0  2.07 -0.5980815845121747 0  2.08 -0.5378396412305315 0  2.09 -0.4770669151571631 0  2.1 -0.4158233816355186 0  2.11 -0.3541694806391678 0  2.12 -0.292166057124823 0  2.13 -0.2298743009857342 0  2.14 -0.1673556866646306 0  2.15 -0.1046719124858885 0  2.16 -0.04188483976671333 0  2.17 0 0  2.18 0 0  2.19 0 0  2.2 0 0  2.21 0 0  2.22 0 0  2.23 0 0  2.24 0 0  2.25 0 0  2.26 0 0  2.27 0 0  2.28 0 0  2.29 0 0  2.3 0 0  2.31 0 0  2.32 0 0  2.33 0 0  2.34 0 0  2.35 0 0  2.36 0 0  2.37 0 0  2.38 0 0  2.39 0 0  2.4 0 0  2.41 0 0  2.42 0 0  2.43 0 0  2.44 0 0  2.45 0 0  2.46 0 0  2.47 0 0  2.48 0 0  2.49 0 0  2.5 0 0  2.51 0 0  2.52 0 0  2.53 0 0  2.54 0 0  2.55 0 0  2.56 0 0  2.57 0 0  2.58 0 0  2.59 0 0  2.6 0 0  2.61 0 0  2.62 0 0  2.63 0 0  2.64 0 0  2.65 0 0  2.66 0 0  2.67 0 0  2.68 0 0  2.69 0 0  2.7 0 0  2.71 0 0  2.72 0 0  2.73 0 0  2.74 0 0  2.75 0 0  2.76 0 0  2.77 0 0  2.78 0 0  2.79 0 0  2.8 0 0  2.81 0 0  2.82 0 0  2.83 0 0  2.84 -0.0418848397667121 0  2.85 -0.1046719124858873 0  2.86 -0.1673556866646293 0  2.87 -0.2298743009857329 0  2.88 -0.2921660571248216 0  2.89 -0.3541694806391664 0  2.9 -0.4158233816355172 0  2.91 -0.4770669151571617 0  2.92 -0.5378396412305301 0  2.93 -0.5980815845121734 0  2.94 -0.6577332934771652 0  2.95 -0.7167358990906006 0  2.96 -0.7750311729042048 0  2.97 -0.8325615845208026 0  2.98 -0.889270358369854 0  2.99 -0.9451015297381083 0  3 -0.9999999999999991 0  3.01 -1.053911590993353 0  3.02 -1.106783098486688 0  3.03 -1.158562344685356 0  3.04 -1.209198229724749 0  3.05 -1.258640782099673 0  3.06 -1.30684120798021 0  3.07 -1.35375193936532 0  3.08 -1.39932668102673 0  3.09 -1.443520456196723 0  3.1 -1.486289650954788 0  3.11 -1.527592057269283 0  3.12 -1.567386914651679 0  3.13 -1.605634950382228 0  3.14 -1.642298418267408 0  3.15 -1.677341135890847 0  3.16 -1.710728520321013 0  3.17 -1.742427622240378 0  3.18 -1.772407158462429 0  3.19 -1.800637542804386 0  3.2 -1.827090915285202 0  3.21 -1.851741169619989 0  3.22 -1.874563978983783 0  3.23 -1.895536820019171 0  3.24 -1.914638995064135 0  3.25 -1.931851652578136 0  3.26 -1.94715780574632 0  3.27 -1.960542349243444 0  3.28 -1.97199207414101 0  3.29 -1.981495680942887 0  3.3 -1.989043790736546 0  3.31 -1.994628954448916 0  3.32 -1.998245660197717 0  3.33 -1.999890338731024 0  3.34 -1.999561366949691 0  3.35 -1.997259069509148 0  3.36 -1.992985718499009 0  3.37 -1.986745531200793 0  3.38 -1.978544665925977 0  3.39 -1.968391215938484 0  3.4 -1.956295201467612 0  3.41 -1.942268559819272 0  3.42 -1.926325133595317 0  3.43 -1.908480657032554 0  3.44 -1.888752740474963 0  3.45 -1.867160852994403 0  3.46 -1.843726303177001 0  3.47 -1.818472218094137 0  3.48 -1.791423520478826 0  3.49 -1.762606904129985 0  3.5 -1.732050807568878 0  3.51 -1.699785385973729 0  3.52 -1.6658424814202 0  3.53 -1.63025559145711 0  3.54 -1.593059836048393 0  3.55 -1.554291922913943 0  3.56 -1.513990111303513 0  3.57 -1.47219417423947 0  3.58 -1.428945359265607 0  3.59 -1.384286347740815 0  3.6 -1.338261212717717 0  3.61 -1.290915375447902 0  3.62 -1.242295560556621 0  3.63 -1.192449749931233 0  3.64 -1.141427135368863 0  3.65 -1.089278070030055 0  3.66 -1.03605401874626 0  3.67 -0.9818075072302828 0  3.68 -0.9265920702397232 0  3.69 -0.8704621987446559 0  3.7 -0.8134732861516001 0  3.71 -0.7556815736369359 0  3.72 -0.6971440946436307 0  3.73 -0.6379186185961414 0  3.74 -0.5780635938889434 0  3.75 -0.5176380902050429 0  3.76 -0.456701740221314 0  3.77 -0.3953146807582535 0  3.78 -0.333537493432207 0  3.79 -0.2714311448686098 0  3.8 -0.2090569265353092 0  3.81 -0.1464763942552643 0  3.82 -0.0837513074584014 0  3.83 -0.02094356823249231 0  3.84 0 0  3.85 0 0  3.86 0 0  3.87 0 0  3.88 0 0  3.89 0 0  3.9 0 0  3.91 0 0  3.92 0 0  3.93 0 0  3.94 0 0  3.95 0 0  3.96 0 0  3.97 0 0  3.98 0 0  3.99 0 0  4 0 0  4.01 0 0  4.02 0 0  4.03 0 0  4.04 0 0  4.05 0 0  4.06 0 0  4.07 0 0  4.08 0 0  4.09 0 0  4.1 0 0  4.11 0 0  4.12 0 0  4.13 0 0  4.14 0 0  4.15 0 0  4.16 0 0  4.17 0 0  4.18 0 0  4.19 0 0  4.2 0 0  4.21 0 0  4.22 0 0  4.23 0 0  4.24 0 0  4.25 0 0  4.26 0 0  4.27 0 0  4.28 0 0  4.29 0 0  4.3 0 0  4.31 0 0  4.32 0 0  4.33 0 0  4.34 0 0  4.35 0 0  4.36 0 0  4.37 0 0  4.38 0 0  4.39 0 0  4.4 0 0  4.41 0 0  4.42 0 0  4.43 0 0  4.44 0 0  4.45 0 0  4.46 0 0  4.47 0 0  4.48 0 0  4.49 0 0  4.5 0 0  4.51 -0.06282151815625525 0  4.52 -0.1255810390586241 0  4.53 -0.1882166266370302 0  4.54 -0.2506664671286087 0  4.55 -0.3128689300804606 0  4.56 -0.3747626291714468 0  4.57 -0.4362864827930868 0  4.58 -0.49737977432971 0  4.59 -0.5579822120784577 0  4.6 -0.6180339887498927 0  4.61 -0.6774758404905846 0  4.62 -0.7362491053693565 0  4.63 -0.7942957812695606 0  4.64 -0.8515585831301434 0  4.65 -0.9079809994790955 0  4.66 -0.9635073482034314 0  4.67 -1.018082831500742 0  4.68 -1.071653589957992 0  4.69 -1.124166755704263 0  4.7 -1.175570504584947 0  4.71 -1.225814107305953 0  4.72 -1.274847979497378 0  4.73 -1.322623730647306 0  4.74 -1.369094211857378 0  4.75 -1.414213562373095 0  4.76 -1.457937254842822 0  4.77 -1.500222139260917 0  4.78 -1.541026485551579 0  4.79 -1.580310024751381 0  4.8 -1.618033988749894 0  4.81 -1.654161148549122 0  4.82 -1.688655851004031 0  4.83 -1.721484054007887 0  4.84 -1.752613360087727 0  4.85 -1.782013048376735 0  4.86 -1.80965410493204 0  4.87 -1.835509251367963 0  4.88 -1.859552971776502 0  4.89 -1.88176153790845 0  4.9 -1.902113032590308 0  4.91 -1.920587371353886 0  4.92 -1.937166322257262 0  4.93 -1.951833523877494 0  4.94 -1.964574501457378 0  4.95 -1.975376681190276 0  4.96 -1.984229402628956 0  4.97 -1.99112392920616 0  4.98 -1.996053456856543 0  4.99 -1.999013120731463 0  5 -2 0  5.01 -1.999013120731463 0  5.02 -1.996053456856543 0  5.03 -1.99112392920616 0  5.04 -1.984229402628956 0  5.05 -1.975376681190276 0  5.06 -1.964574501457378 0  5.07 -1.951833523877494 0  5.08 -1.937166322257262 0  5.09 -1.920587371353886 0  5.1 -1.902113032590308 0  5.11 -1.88176153790845 0  5.12 -1.859552971776503 0  5.13 -1.835509251367963 0  5.14 -1.80965410493204 0  5.15 -1.782013048376735 0  5.16 -1.752613360087727 0  5.17 -1.721484054007888 0  5.18 -
[...]
<PointData  Scalars="f_88"> 
<DataArray  type="Float64"  Name="f_88"  format="ascii">1.0000000000000000e+00  1.0000000000000000e+00  9.7392721525916881e-01  9.5449481756548216e-01  9.3784045788800330e-01  9.2322933769264592e-01  9.1052615690021466e-01  8.9892338472658750e-01  8.8823408891876743e-01  8.7827979877404472e-01  8.6896773948805361e-01  8.6024572035570646e-01  8.5203913079997995e-01  8.4425684886752950e-01  8.3687951804855432e-01  8.2989824178973626e-01  8.2325010934741760e-01  8.1676309836326211e-01  8.1053172132617457e-01  8.0450727925657106e-01  7.9873795700089678e-01  7.9316814971998995e-01  7.8779761859880704e-01  7.8259704072843128e-01  7.7756636229269449e-01  7.7268653921200747e-01  7.6796180759828114e-01  7.6334913865753051e-01  7.5886474817721905e-01  7.5447332808414491e-01  7.5022073537807343e-01  7.4606365372219741e-01  7.4200674367654385e-01  7.3803664784255674e-01  7.3417877446229229e-01  7.3040000328124133e-01  7.2668341083980348e-01  7.2307161485007287e-01  7.1952827286643917e-01  7.1604339401594086e-01  7.1264938065246497e-01  7.0931058024744631e-01  7.0604088021879552e-01  7.0282845507813874e-01  6.9969373201977625e-01  6.9660515499068765e-01  6.9357379147855347e-01  6.9058629254819659e-01  6.8764525730655968e-01  6.8475215893678509e-01  6.8191744269611443e-01  6.7911678809788489e-01  6.7636100821410305e-01  6.7363781097315689e-01  6.7096977519904533e-01  6.6833038147698109e-01  6.6572351144457698e-01  6.6313962858563558e-01  6.6059940486493940e-01  6.5808104863964834e-01  6.5558704605220453e-01  6.5311594218081392e-01  6.5068493790392423e-01  6.4827145518208618e-01  6.4589389748267545e-01  6.4353195321772094e-01  6.4119879424113246e-01  6.3888804021506451e-01  6.3661254970009629e-01  6.3434959540926650e-01  6.3209422832212336e-01  6.2986576485238910e-01  6.2764909163788152e-01  6.2545829694372079e-01  6.2327017530349138e-01  6.2110025696571336e-01  6.1893692197334516e-01  6.1679510449236197e-01  6.1465811539727877e-01  6.1252875808530205e-01  6.1042172547687590e-01  6.0831591891792247e-01  6.0621735048476499e-01  6.0412330051436980e-01  6.0204532081521989e-01  5.9996422975045605e-01  5.9788632227440641e-01  5.9580589826403008e-01  5.9373571895203159e-01  5.9165564817911598e-01  5.8957437768956833e-01  5.8748830630549875e-01  5.8540860971913655e-01  5.8331356447232863e-01  5.8120510591935437e-01  5.7909194960972610e-01  5.7695578928243796e-01  5.7480059487622637e-01  5.7262232247804212e-01  5.7042457418067960e-01  5.6818762139313050e-01  5.6592614764226956e-01  5.6362936157414134e-01  5.6127807530513185e-01  5.5887202318620199e-01  5.5640659894156419e-01  5.5386817197540728e-01  5.5123485254505045e-01  5.4848901796429672e-01  5.4561103982322412e-01  5.4262033908002028e-01  5.3940470584929356e-01  5.3593250030161366e-01  5.3215235250227388e-01  5.2790518873784098e-01  5.2269289693706800e-01  5.1646968821314121e-01  5.0749496559468310e-01  4.7858016926836106e-01  4.2133667382251405e-01  3.7670008555456819e-01  3.3978912952244433e-01  3.0815814815741327e-01  2.8086363035879436e-01  2.5678940803851702e-01  2.3502049734746355e-01  2.1513945186986735e-01  1.9763077076940347e-01  1.8144972236197482e-01  1.6686407783167795e-01  1.5340569107395000e-01  1.4133597630839093e-01  1.3032256372947587e-01  1.2046996037756443e-01  1.1110508353393800e-01  1.0272211998429658e-01  9.4933367961158491e-02  8.7945081688228829e-02  8.1453154984591145e-02  7.5695592466259079e-02  7.0331659029544052e-02  6.5510992447646743e-02  6.1045722347805781e-02  5.7100897828189660e-02  5.3442769396398491e-02  5.0064804489724009e-02  4.7084540221746587e-02  4.4364043256590401e-02  4.1978340448395650e-02  3.9789380089994129e-02  3.7810537726039269e-02  3.6092206058503544e-02  3.4537559440672924e-02  3.3127812406106093e-02  3.1906085046419348e-02  3.0821271412736953e-02  2.9903915938639527e-02  2.9092637889599173e-02  2.8408961632472040e-02  2.7819228897841053e-02  2.7345395461603583e-02  2.6944492269647988e-02  2.6624627541282784e-02  2.6375383363177279e-02  2.6191678698207332e-02  2.6060806818079246e-02  2.5979481482080659e-02  2.5933386420741129e-02  2.5926244840288850e-02  2.5957765568816685e-02  2.6029250487977162e-02  2.6139583283646638e-02  2.6305131480030754e-02  2.6532399322437523e-02  2.6832692126803958e-02  2.7191560082933813e-02  2.7643966761543615e-02  2.8198856021460481e-02  2.8851968953339639e-02  2.9602951430345789e-02  3.0495374020496624e-02  3.1530381230371385e-02  3.2713511185001515e-02  3.4022527510502512e-02  3.5523801071380846e-02  3.7176676110653714e-02  3.9074547459795529e-02  4.1178850379687285e-02  4.3554331935693538e-02  4.6136158832191854e-02  4.8958345950290340e-02  5.2175331027488683e-02  5.5723339298999669e-02  5.9562877479808762e-02  6.3785708586607134e-02  6.8461565735726815e-02  7.3557710782778174e-02  7.9227919717118012e-02  8.5377711970659159e-02  9.1911045440298766e-02  9.9211681827759704e-02  1.0703956766929353e-01  1.1571074142748605e-01  1.2480486702924155e-01  1.3477331110066787e-01  1.4564822325774920e-01  1.5759244606703551e-01  1.7011866605555082e-01  1.8354704066182001e-01  1.9773326063395077e-01  2.1337412102318518e-01  2.2976401721513665e-01  2.4702271495313807e-01  2.6549260876471903e-01  2.8508992334567346e-01  3.0673101896447319e-01  3.3085490169269993e-01  3.5860254442162354e-01  3.8101886704072513e-01  3.8263402701050708e-01  3.8315201637846680e-01  3.8328766245587365e-01  3.8321034767801510e-01  3.8295291465848202e-01  3.8259305721935011e-01  3.8212697124425576e-01  3.8160136314898269e-01  3.8103734613674956e-01  3.8042973721744378e-01  3.7979615003818684e-01  3.7913231144381582e-01  3.7844780594430411e-01  3.7773564608936827e-01  3.7700761037579472e-01  3.7625962066750701e-01  3.7550093345279306e-01  3.7473212597856859e-01  3.7394721602974912e-01  3.7315478816963321e-01  3.7235355709070206e-01  3.7153627006709278e-01  3.7070863080612265e-01  3.6987205997755085e-01  3.6903126270727082e-01  3.6817819159857423e-01  3.6732027630615566e-01  3.6644990562430402e-01  3.6557124583353223e-01  3.6468272417618652e-01  3.6378902602794111e-01  3.6288181315875317e-01  3.6196700911428770e-01  3.6104166903030571e-01  3.6011001397659220e-01  3.5916408126195365e-01  3.5820703362103462e-01  3.5723939743262467e-01  3.5626296734192536e-01  3.5526834656381323e-01  3.5426257543634682e-01  3.5324462374015042e-01  3.5220986162521500e-01  3.5116439241554037e-01  3.5009725732367247e-01  3.4901509843805673e-01  3.4790715226119023e-01  3.4677691684203271e-01  3.4561670459840382e-01  3.4442579517987088e-01  3.4320554802273245e-01  3.4195107172587597e-01  3.4065005752838551e-01  3.3931683921650996e-01  3.3792991197938393e-01  3.3647733122299089e-01  3.3494416141757849e-01  3.3331910514287116e-01  3.3162656590050626e-01  3.2978437566049823e-01  3.2777500673485171e-01  3.2554311510171635e-01  3.2300348169512738e-01  3.1979727768206129e-01  3.1589545361286619e-01  3.1050498950535871e-01  2.8192469211223226e-01  2.4944393545465102e-01  2.2443400991829945e-01  2.0305126201403881e-01  1.8493473345147063e-01  1.6854840301158336e-01  1.5428421942443660e-01  1.4121842270118659e-01  1.2947791364205608e-01  1.1905783157554238e-01  1.0934621259452670e-01  1.0065605450493238e-01  9.2525705750324247e-02  8.5236928975947812e-02  7.8622253971136410e-02  7.2708535283148940e-02  6.7083167888229572e-02  6.2057020374430560e-02  5.7388439552524505e-02  5.3238901773302323e-02  4.9380062769307051e-02  4.5791179452148209e-02  4.2576726729312286e-02  3.9632166932354829e-02  3.7029456105631769e-02  3.4626442536773043e-02  3.2387963894715807e-02  3.0413597823952768e-02  2.8604989585509232e-02  2.7012249161549227e-02  2.5548902337982213e-02  2.4247591460203260e-02  2.3064271833738520e-02  2.2035222017702080e-02  2.1100613603398460e-02  2.0275211801911913e-02  1.9544636963718897e-02  1.8924618898004297e-02  1.8375355447086860e-02  1.7893885325713694e-02  1.7495479461745508e-02  1.7151859287108714e-02  1.6864436625895693e-02  1.6633867771622814e-02  1.6453149996418056e-02  1.6313264950891696e-02  1.6211676307955607e-02  1.6140833458960720e-02  1.6098765074425789e-02  1.6077972711550991e-02  1.6081486081884710e-02  1.6109260507332492e-02  1.6162406490796959e-02  1.6240461440268042e-02  1.6354648324274898e-02  1.6508851669910986e-02  1.6710451365277677e-02  1.6951741979991993e-02  1.7255728648565710e-02  1.7621131260620888e-02  1.8040978011977744e-02  1.8543893536956450e-02  1.9112916591900928e-02  1.9785621949923227e-02  2.0542921218542693e-02  2.1416398764161296e-02  2.2379437630761508e-02  2.3443287417034935e-02  2.4667818149261337e-02  2.6022183921766060e-02  2.7497558907399432e-02  2.9179240279131213e-02  3.1009908037667813e-02  3.3071913442887922e-02  3.5356909174154148e-02  3.7806411253988557e-02  4.0511058946944130e-02  4.3491989101912341e-02  4.6780759885696938e-02  5.0285999107151202e-02  5.4223543239253470e-02  5.8477105828173254e-02  6.3164297866039817e-02  6.8170772772977853e-02  7.3636839507406432e-02  7.9399510457215342e-02  8.5816759266458598e-02  9.2755852628313623e-02  1.0027713310770295e-01  1.0822176136917798e-01  1.1696739637402195e-01  1.2592306104296161e-01  1.3574911778677340e-01  1.4626445006885783e-01  1.5715105567039128e-01  1.6912144798653053e-01  1.8171319881152595e-01  1.9580619953568915e-01  2.1148189746013821e-01  2.3029347669623140e-01  2.3813921838144339e-01  2.3867295634635616e-01  2.3893910892313733e-01  2.3896633239807738e-01  2.3888219912016961e-01  2.3868587437758407e-01  2.3844365127438397e-01  2.3815655434222338e-01  2.3782955608029357e-01  2.3747863364772620e-01  2.3709991150786983e-01  2.3670410710091103e-01  2.3628710838952433e-01  2.3585667460661575e-01  2.3541031815147756e-01  2.3495297745908753e-01  2.3448598633877504e-01  2.3401198924746996e-01  2.3352781142103782e-01  2.3303836630470515e-01  2.3253904285758295e-01  2.3203400153492612e-01  2.3152239447416736e-01  2.3100690910808908e-01  2.3048258433206378e-01  2.2995296246681488e-01  2.2941770162049274e-01  2.2888054746760189e-01  2.2833562659774231e-01  2.2778802805534018e-01  2.2723207067970413e-01  2.2667121939259260e-01  2.2610396295250787e-01  2.2553368504161356e-01  2.2495469322417436e-01  2.2437090791867045e-01  2.2378028617460816e-01  2.2318528300893548e-01  2.2258043268802008e-01  2.2196875248497314e-01  2.2134818846866497e-01  2.2072030546917240e-01  2.2007857635055192e-01  2.1942698158009269e-01  2.1876172670629151e-01  2.1808765477642036e-01  2.1740291063507061e-01  2.1670381816681611e-01  2.1599049956630970e-01  2.1525616318599466e-01  2.1450258525130178e-01  2.1372785086648674e-01  2.1293190832676528e-01  2.1210696073403268e-01  2.1126156762230727e-01  2.1038129431139110e-01  2.0945856433818796e-01  2.0848357657828764e-01  2.0744909693949912e-01  2.0636873018073090e-01  2.0518560877346692e-01  2.0388858133523324e-01  2.0244343503515064e-01  2.0078283580851378e-01  1.9866687460801238e-01  1.9607730860040992e-01  1.9249386684592745e-01  1.6775033639368458e-01  1.4978558982507678e-01  1.3499963463428755e-01  1.2242761675805197e-01  1.1163922024885589e-01  1.0184375962538632e-01  9.3300321328380745e-02  8.5469615641786414e-02  7.8353823232439834e-02  7.2079674322292175e-02  6.6263327322709120e-02  6.1010408542273409e-02  5.6115448975028528e-02  5.1675138450560466e-02  4.7650623269684826e-02  4.4073658963980994e-02  4.0702152065164504e-02  3.7670612590315566e-02  3.4845201130362206e-02  3.2268877267268702e-02  2.9920717289840783e-02  2.7837218260539229e-02  2.5891631584222238e-02  2.4140646897962876e-02  2.2528494218160264e-02  2.1098598829197596e-02  1.9777249045905689e-02  1.8571273093468257e-02  1.7483719368087808e-02  1.6528219573895574e-02  1.5655471440121072e-02  1.4854730447959047e-02  1.4149009221800058e-02  1.3516150423627249e-02  1.2968267282534411e-02  1.2473740070939099e-02  1.2043226682275601e-02  1.1662629149866597e-02  1.1341422508052590e-02  1.1059129335119957e-02  1.0825409343717665e-02  1.0623240691412234e-02  1.0454274950492217e-02  1.0321487065902106e-02  1.0220674235491225e-02  1.0139739431373881e-02  1.0082075417707574e-02  1.0044303820359731e-02  1.0023605953949606e-02  1.0016123904704384e-02  1.0023595996878333e-02  1.0045945842823150e-02  1.0082185993358224e-02  1.0138689697287439e-02  1.0216863681721708e-02  1.0321093891470914e-02  1.0455106896066824e-02  1.0623789084893876e-02  1.0825699867493375e-02  1.1059238220436755e-02  1.1341435759154143e-02  1.1662559418644363e-02  1.2043081989781251e-02  1.2473510620969774e-02  1.2967936041748391e-02  1.3515698365534052e-02  1.4148408984147482e-02  1.4853975769691528e-02  1.5643874827572696e-02  1.6506235896867869e-02  1.7488652394226339e-02  1.8555141041278603e-02  1.9757102430153273e-02  2.1067683717093985e-02  2.2489622800317483e-02  2.4092996166719043e-02  2.5826201302648417e-02  2.7750481856849304e-02  2.9805395913206353e-02  3.2116002239062622e-02  3.4623036425628584e-02  3.7385592165519933e-02  4.0334601969729066e-02  4.3586976243319565e-02  4.6985635809841067e-02  5.0774966534432801e-02  5.4898936944618427e-02  5.9392952542836212e-02  6.4146546031264115e-02  6.9161507443431094e-02  7.4595136469851012e-02  8.0392162643301443e-02  8.6711996377294751e-02  9.3388041831279300e-02  1.0036170760484409e-01  1.0790454063223656e-01  1.1597869707414106e-01  1.2496235394473100e-01  1.3506405626555240e-01  1.4780002482662011e-01  1.4848040514003061e-01  1.4878752260465747e-01  1.4894467555319565e-01  1.4895320701866205e-01  1.4889850525102452e-01  1.4878003118858371e-01  1.4862769326074829e-01  1.4844885301966018e-01  1.4825069410621439e-01  1.4803134879296054e-01  1.4780296230792464e-01  1.4756325135090759e-01  1.4731015325683366e-01  1.4704808394912394e-01  1.4677565170993387e-01  1.4649861482643173e-01  1.4621600122630324e-01  1.4592515627346847e-01  1.4562931790571851e-01  1.4532851750957732e-01  1.4502448635463647e-01  1.4471462223680648e-01  1.4440102267304114e-01  1.4408328545053936e-01  1.4376290429638938e-01  1.4343716876557225e-01  1.4310749912817514e-01  1.4277447400917104e-01  1.4243905640391225e-01  1.4209809284386113e-01  1.4175422722526709e-01  1.4140761736554641e-01  1.4105676935421271e-01  1.4070415171607506e-01  1.4034606707822170e-01  1.3998557670709508e-01  1.3961909077499815e-01  1.3924884307300256e-01  1.3887266358475156e-01  1.3849152122596942e-01  1.3810659383131277e-01  1.3771769085724098e-01  1.3732108573553314e-01  1.3692008763275679e-01  1.3651313262682399e-01  1.3609818901020049e-01  1.3567667753680038e-01  1.3524430699279857e-01  1.3480395189681502e-01  1.3435278882089299e-01  1.3388660588559537e-01  1.3341146647746163e-01  1.3292083557136014e-01  1.3241049455698833e-01  1.3187905863952737e-01  1.3132297244417829e-01  1.3074986781685854e-01  1.3014213780044670e-01  1.2949410173471870e-01  1.2880072647457250e-01  1.2805005400357128e-01  1.2719136627763744e-01  1.2621635538460477e-01  1.2510868066838762e-01  1.2362519785070675e-01  1.2175231856290770e-01  1.1509102863709482e-01  1.0111874417211296e-01  9.0597026633281508e-02  8.1763137417317749e-02  7.4318507114712981e-02  6.7735855365387024e-02  6.1945499328443510e-02  5.6710116803563818e-02  5.1927376494721622e-02  4.7713800314832897e-02  4.3812410525231403e-02  4.0296968751124249e-02  3.7055457099287425e-02  3.4155468698093057e-02  3.1468205706601353e-02  2.9080158840069495e-02  2.6844384669698518e-02  2.4820311263081159e-02  2.2939010922467730e-02  2.1250897549513450e-02  1.9682536807091807e-02  1.8291494985691447e-02  1.6995457989300234e-02  1.5830625740971049e-02  1.4751632323551409e-02  1.3798375872097764e-02  1.2914376181490727e-02  1.2098068348121363e-02  1.1377844877055654e-02  1.0720262621035327e-02  1.0143421555244000e-02  9.6143313638213952e-03  9.1363811376603838e-03  8.7213244468473290e-03  8.3460088713603053e-03  8.0064029865187982e-03  7.7139484057970721e-03  7.4527277043940632e-03  7.2245228120239018e-03  7.0285896918772144e-03  6.8650305216193990e-03  6.7226647149850102e-03  6.6045497619397044e-03  6.5108030802622499e-03  6.4324582703456663e-03  6.3724706487055987e-03  6.3280322189869006e-03  6.2976242199051400e-03  6.2768856996034510e-03  6.2660024368705880e-03  6.2645128629215787e-03  6.2722608354246930e-03  6.2896214115868579e-03  6.3163281888554681e-03  6.3563321580554291e-03  6.4112356745067954e-03  6.4838015900188853e-03  6.5712928716492843e-03  6.6824450987678259e-03  6.8167471719969763e-03  6.9723285686999811e-03  7.1602486006199341e-03  7.3745751908691776e-03  7.6164160624697793e-03  7.9012133899386775e-03  8.2199679766626638e-03  8.5831453374246771e-03  8.9827641421976207e-03  9.4411871119904605e-03  9.9502502083454736e-03  1.0525187827042419e-02  1.1148648548028866e-02  1.1830221987515504e-02  1.2607212118196574e-02  1.3463872787755911e-02  1.4398327615827182e-02  1.5408383780395643e-02  1.6541633920524736e-02  1.7775707441951893e-02  1.9148036348676883e-02  2.0637307002831479e-02  2.2217686223332429e-02  2.3981699298955036e-02  2.5873496162861848e-02  2.7970205354860830e-02  3.0169850797786436e-02  3.2581977726150652e-02  3.5214315463332715e-02  3.8106380295859325e-02  4.1140411709661082e-02  4.4394246712086548e-02  4.7833441498116032e-02  5.1626693568525339e-02  5.5603364040987098e-02  5.9794501734716482e-02  6.4289022105176813e-02  6.9136926862051348e-02  7.4367211618935447e-02  8.0253701933794691e-02  8.7019698615768415e-02  9.2483137981300825e-02  9.2770672948016344e-02  9.2933857647379908e-02  9.2988767335677527e-02  9.2988313362388747e-02  9.2932464195509407e-02  9.2851625615820568e-02  9.2747939162664189e-02  9.2633606906837654e-02  9.2506589278528256e-02  9.2365759137472650e-02  9.2216314242331607e-02  9.2060195084649313e-02  9.1898995263654082e-02  9.1731289762976079e-02  9.1559707149230271e-02  9.1382879866807293e-02  9.1202619232403886e-02  9.1018768806557862e-02  9.0832457808971936e-02  9.0642570828602484e-02  9.0450867965126011e-02  9.0255403033480203e-02  9.0057877580740589e-02  8.9856991064041547e-02  8.9654122374135586e-02  8.9449431323036482e-02  8.9242189802825611e-02  8.9033584207889302e-02  8.8821516399419667e-02  8.8607156721506722e-02  8.8391219296404366e-02  8.8171847659727076e-02  8.7950506373480203e-02  8.7727481875131255e-02  8.7501604035388911e-02  8.7273816895826625e-02  8.7041949930317025e-02  8.6807798653902854e-02  8.6569971644985699e-02  8.6328981531955604e-02  8.6084537076131881e-02  8.5837249501294718e-02  8.5585659296389047e-02  8.5331035532583935e-02  8.5070740278045967e-02  8.4806074599547296e-02  8.4537088931995297e-02  8.4261352703914397e-02  8.3979778840650429e-02  8.3690053060129124e-02  8.3393184065908219e-02  8.3088636655134065e-02  8.2773199012816948e-02  8.2447678141329847e-02  8.2109950453309974e-02  8.1757236296247093e-02  8.1386327836948366e-02  8.0995941906177635e-02  8.0583561925187439e-02  8.0135839282123797e-02  7.9648176594268927e-02  7.9100073652254133e-02  7.8483617279392570e-02  7.7736869775544296e-02  7.6808940304744625e-02  7.5311862929117387e-02  6.8347941016877078e-02  6.0574606859234700e-02  5.4413283694880389e-02  4.9208341619199819e-02  4.4736349556688301e-02  4.0871063610083365e-02  3.7369885257250053e-02  3.4196390748572170e-02  3.1345706648782674e-02  2.8816991915407413e-02  2.6461243676384000e-02  2.4354354008098076e-02  2.2384000236742165e-02  2.0618136594319911e-02  1.9016109869032898e-02  1.7584292493836414e-02  1.6222586095703134e-02  1.5006093306443310e-02  1.3876311738324511e-02  1.2872246266849911e-02  1.1938633247381385e-02  1.1070422423880295e-02  1.0292907526080381e-02  9.5808276055547020e-03  8.9515298474581069e-03  8.3706342955770924e-03  7.8295292559376443e-03  7.3522244712574368e-03  6.9149496262508455e-03  6.5298632376438823e-03  6.1760581772146335e-03  5.8614868757664524e-03  5.5754934286179900e-03  5.3268509490645025e-03  5.1010943958101802e-03  4.9017263036664031e-03  4.7252640104079140e-03  4.5754909092187799e-03  4.4427954564625607e-03  4.3264738817895441e-03  4.2302102711232964e-03  4.1471748202951460e-03  4.0777141748532123e-03  4.0219911770716568e-03  3.9783143844805786e