<?xml version="1.0"?>
<VTKFile type="UnstructuredGrid"  version="0.1"  >
<UnstructuredGrid>
<Piece  NumberOfPoints="5209" NumberOfCells="8216">
<Points>
<DataArray  type="Float64"  NumberOfComponents="3"  format="ascii">0 0.01 0  0 0 0  0.01 0 0  0.02 0 0  0.03 0 0  0.04 0 0  0.05 0 0  0.06 0 0  0.07000000000000001 0 0  0.08 0 0  0.09 0 0  0.1 0 0  0.11 0 0  0.12 0 0  0.13 0 0  0.14 0 0  0.15 0 0  0.16 0 0  0.17 0 0  0.18 0 0  0.19 0 0  0.2 0 0  0.21 0 0  0.22 0 0  0.23 0 0  0.24 0 0  0.25 0 0  0.26 0 0  0.27 0 0  0.28 0 0  0.29 0 0  0.3 0 0  0.31 0 0  0.32 0 0  0.33 0 0  0.34 0 0  0.35 0 0  0.36 0 0  0.37 0 0  0.38 0 0  0.39 0 0  0.4 0 0  0.41 0 0  0.42 0 0  0.43 0 0  0.44 0 0  0.45 0 0  0.46 0 0  0.47 0 0  0.48 0 0  0.49 0 0  0.5 0 0  0.51 0 0  0.52 0 0  0.53 0 0  0.54 0 0  0.55 0 0  0.5600000000000001 0 0  0.57 0 0  0.58 0 0  0.59 0 0  0.6 0 0  0.61 0 0  0.62 0 0  0.63 0 0  0.64 0 0  0.65 0 0  0.66 0 0  0.67 0 0  0.68 0 0  0.6899999999999999 0 0  0.7 0 0  0.71 0 0  0.72 0 0  0.73 0 0  0.74 0 0  0.75 0 0  0.76 0 0  0.77 0 0  0.78 0 0  0.79 0 0  0.8 0 0  0.8100000000000001 0 0  0.82 0 0  0.83 0 0  0.84 0 0  0.85 0 0  0.86 0 0  0.87 0 0  0.88 0 0  0.89 0 0  0.9 0 0  0.91 0 0  0.92 0 0  0.93 0 0  0.9399999999999999 0 0  0.95 0 0  0.96 0 0  0.97 0 0  0.98 0 0  0.99 0 0  1 0 0  1.01 0 0  1.02 0 0  1.03 0 0  1.04 0 0  1.05 0 0  1.06 0 0  1.07 0 0  1.08 0 0  1.09 0 0  1.1 0 0  1.11 0 0  1.12 0 0  1.13 0 0  1.14 0 0  1.15 0 0  1.16 0 0  1.17 -0.02094356823249068 0  1.18 -0.0837513074583984 0  1.19 -0.1464763942552626 0  1.2 -0.2090569265353062 0  1.21 -0.2714311448686081 0  1.22 -0.3335374934322039 0  1.23 -0.3953146807582517 0  1.24 -0.456701740221311 0  1.25 -0.517638090205041 0  1.26 -0.5780635938889428 0  1.27 -0.6379186185961396 0  1.28 -0.6971440946436301 0  1.29 -0.755681573636934 0  1.3 -0.8134732861516003 0  1.31 -0.8704621987446548 0  1.32 -0.9265920702397233 0  1.33 -0.9818075072302815 0  1.34 -1.03605401874626 0  1.35 -1.089278070030054 0  1.36 -1.141427135368863 0  1.37 -1.192449749931232 0  1.38 -1.24229556055662 0  1.39 -1.2909153754479 0  1.4 -1.338261212717716 0  1.41 -1.384286347740813 0  1.42 -1.428945359265606 0  1.43 -1.472194174239468 0  1.44 -1.513990111303512 0  1.45 -1.554291922913941 0  1.46 -1.593059836048392 0  1.47 -1.630255591457108 0  1.48 -1.665842481420199 0  1.49 -1.699785385973728 0  1.5 -1.732050807568877 0  1.51 -1.762606904129984 0  1.52 -1.791423520478826 0  1.53 -1.818472218094137 0  1.54 -1.843726303177001 0  1.55 -1.867160852994403 0  1.56 -1.888752740474962 0  1.57 -1.908480657032554 0  1.58 -1.926325133595316 0  1.59 -1.942268559819272 0  1.6 -1.956295201467611 0  1.61 -1.968391215938484 0  1.62 -1.978544665925977 0  1.63 -1.986745531200793 0  1.64 -1.992985718499009 0  1.65 -1.997259069509148 0  1.66 -1.999561366949691 0  1.67 -1.999890338731024 0  1.68 -1.998245660197717 0  1.69 -1.994628954448916 0  1.7 -1.989043790736547 0  1.71 -1.981495680942887 0  1.72 -1.97199207414101 0  1.73 -1.960542349243444 0  1.74 -1.947157805746321 0  1.75 -1.931851652578137 0  1.76 -1.914638995064135 0  1.77 -1.895536820019172 0  1.78 -1.874563978983783 0  1.79 -1.85174116961999 0  1.8 -1.827090915285202 0  1.81 -1.800637542804387 0  1.82 -1.77240715846243 0  1.83 -1.742427622240379 0  1.84 -1.710728520321013 0  1.85 -1.677341135890848 0  1.86 -1.642298418267408 0  1.87 -1.605634950382229 0  1.88 -1.56738691465168 0  1.89 -1.527592057269285 0  1.9 -1.486289650954789 0  1.91 -1.443520456196725 0  1.92 -1.399326681026732 0  1.93 -1.353751939365322 0  1.94 -1.306841207980212 0  1.95 -1.258640782099675 0  1.96 -1.209198229724751 0  1.97 -1.158562344685358 0  1.98 -1.106783098486689 0  1.99 -1.053911590993355 0  2 -1.000000000000001 0  2.01 -0.9451015297381098 0  2.02 -0.8892703583698556 0  2.03 -0.8325615845208041 0  2.04 -0.7750311729042063 0  2.05 -0.7167358990906021 0  2.06 -0.6577332934771668 0  2.07 -0.5980815845121747 0  2.08 -0.5378396412305315 0  2.09 -0.4770669151571631 0  2.1 -0.4158233816355186 0  2.11 -0.3541694806391678 0  2.12 -0.292166057124823 0  2.13 -0.2298743009857342 0  2.14 -0.1673556866646306 0  2.15 -0.1046719124858885 0  2.16 -0.04188483976671333 0  2.17 0 0  2.18 0 0  2.19 0 0  2.2 0 0  2.21 0 0  2.22 0 0  2.23 0 0  2.24 0 0  2.25 0 0  2.26 0 0  2.27 0 0  2.28 0 0  2.29 0 0  2.3 0 0  2.31 0 0  2.32 0 0  2.33 0 0  2.34 0 0  2.35 0 0  2.36 0 0  2.37 0 0  2.38 0 0  2.39 0 0  2.4 0 0  2.41 0 0  2.42 0 0  2.43 0 0  2.44 0 0  2.45 0 0  2.46 0 0  2.47 0 0  2.48 0 0  2.49 0 0  2.5 0 0  2.51 0 0  2.52 0 0  2.53 0 0  2.54 0 0  2.55 0 0  2.56 0 0  2.57 0 0  2.58 0 0  2.59 0 0  2.6 0 0  2.61 0 0  2.62 0 0  2.63 0 0  2.64 0 0  2.65 0 0  2.66 0 0  2.67 0 0  2.68 0 0  2.69 0 0  2.7 0 0  2.71 0 0  2.72 0 0  2.73 0 0  2.74 0 0  2.75 0 0  2.76 0 0  2.77 0 0  2.78 0 0  2.79 0 0  2.8 0 0  2.81 0 0  2.82 0 0  2.83 0 0  2.84 -0.0418848397667121 0  2.85 -0.1046719124858873 0  2.86 -0.1673556866646293 0  2.87 -0.2298743009857329 0  2.88 -0.2921660571248216 0  2.89 -0.3541694806391664 0  2.9 -0.4158233816355172 0  2.91 -0.4770669151571617 0  2.92 -0.5378396412305301 0  2.93 -0.5980815845121734 0  2.94 -0.6577332934771652 0  2.95 -0.7167358990906006 0  2.96 -0.7750311729042048 0  2.97 -0.8325615845208026 0  2.98 -0.889270358369854 0  2.99 -0.9451015297381083 0  3 -0.9999999999999991 0  3.01 -1.053911590993353 0  3.02 -1.106783098486688 0  3.03 -1.158562344685356 0  3.04 -1.209198229724749 0  3.05 -1.258640782099673 0  3.06 -1.30684120798021 0  3.07 -1.35375193936532 0  3.08 -1.39932668102673 0  3.09 -1.443520456196723 0  3.1 -1.486289650954788 0  3.11 -1.527592057269283 0  3.12 -1.567386914651679 0  3.13 -1.605634950382228 0  3.14 -1.642298418267408 0  3.15 -1.677341135890847 0  3.16 -1.710728520321013 0  3.17 -1.742427622240378 0  3.18 -1.772407158462429 0  3.19 -1.800637542804386 0  3.2 -1.827090915285202 0  3.21 -1.851741169619989 0  3.22 -1.874563978983783 0  3.23 -1.895536820019171 0  3.24 -1.914638995064135 0  3.25 -1.931851652578136 0  3.26 -1.94715780574632 0  3.27 -1.960542349243444 0  3.28 -1.97199207414101 0  3.29 -1.981495680942887 0  3.3 -1.989043790736546 0  3.31 -1.994628954448916 0  3.32 -1.998245660197717 0  3.33 -1.999890338731024 0  3.34 -1.999561366949691 0  3.35 -1.997259069509148 0  3.36 -1.992985718499009 0  3.37 -1.986745531200793 0  3.38 -1.978544665925977 0  3.39 -1.968391215938484 0  3.4 -1.956295201467612 0  3.41 -1.942268559819272 0  3.42 -1.926325133595317 0  3.43 -1.908480657032554 0  3.44 -1.888752740474963 0  3.45 -1.867160852994403 0  3.46 -1.843726303177001 0  3.47 -1.818472218094137 0  3.48 -1.791423520478826 0  3.49 -1.762606904129985 0  3.5 -1.732050807568878 0  3.51 -1.699785385973729 0  3.52 -1.6658424814202 0  3.53 -1.63025559145711 0  3.54 -1.593059836048393 0  3.55 -1.554291922913943 0  3.56 -1.513990111303513 0  3.57 -1.47219417423947 0  3.58 -1.428945359265607 0  3.59 -1.384286347740815 0  3.6 -1.338261212717717 0  3.61 -1.290915375447902 0  3.62 -1.242295560556621 0  3.63 -1.192449749931233 0  3.64 -1.141427135368863 0  3.65 -1.089278070030055 0  3.66 -1.03605401874626 0  3.67 -0.9818075072302828 0  3.68 -0.9265920702397232 0  3.69 -0.8704621987446559 0  3.7 -0.8134732861516001 0  3.71 -0.7556815736369359 0  3.72 -0.6971440946436307 0  3.73 -0.6379186185961414 0  3.74 -0.5780635938889434 0  3.75 -0.5176380902050429 0  3.76 -0.456701740221314 0  3.77 -0.3953146807582535 0  3.78 -0.333537493432207 0  3.79 -0.2714311448686098 0  3.8 -0.2090569265353092 0  3.81 -0.1464763942552643 0  3.82 -0.0837513074584014 0  3.83 -0.02094356823249231 0  3.84 0 0  3.85 0 0  3.86 0 0  3.87 0 0  3.88 0 0  3.89 0 0  3.9 0 0  3.91 0 0  3.92 0 0  3.93 0 0  3.94 0 0  3.95 0 0  3.96 0 0  3.97 0 0  3.98 0 0  3.99 0 0  4 0 0  4.01 0 0  4.02 0 0  4.03 0 0  4.04 0 0  4.05 0 0  4.06 0 0  4.07 0 0  4.08 0 0  4.09 0 0  4.1 0 0  4.11 0 0  4.12 0 0  4.13 0 0  4.14 0 0  4.15 0 0  4.16 0 0  4.17 0 0  4.18 0 0  4.19 0 0  4.2 0 0  4.21 0 0  4.22 0 0  4.23 0 0  4.24 0 0  4.25 0 0  4.26 0 0  4.27 0 0  4.28 0 0  4.29 0 0  4.3 0 0  4.31 0 0  4.32 0 0  4.33 0 0  4.34 0 0  4.35 0 0  4.36 0 0  4.37 0 0  4.38 0 0  4.39 0 0  4.4 0 0  4.41 0 0  4.42 0 0  4.43 0 0  4.44 0 0  4.45 0 0  4.46 0 0  4.47 0 0  4.48 0 0  4.49 0 0  4.5 0 0  4.51 -0.06282151815625525 0  4.52 -0.1255810390586241 0  4.53 -0.1882166266370302 0  4.54 -0.2506664671286087 0  4.55 -0.3128689300804606 0  4.56 -0.3747626291714468 0  4.57 -0.4362864827930868 0  4.58 -0.49737977432971 0  4.59 -0.5579822120784577 0  4.6 -0.6180339887498927 0  4.61 -0.6774758404905846 0  4.62 -0.7362491053693565 0  4.63 -0.7942957812695606 0  4.64 -0.8515585831301434 0  4.65 -0.9079809994790955 0  4.66 -0.9635073482034314 0  4.67 -1.018082831500742 0  4.68 -1.071653589957992 0  4.69 -1.124166755704263 0  4.7 -1.175570504584947 0  4.71 -1.225814107305953 0  4.72 -1.274847979497378 0  4.73 -1.322623730647306 0  4.74 -1.369094211857378 0  4.75 -1.414213562373095 0  4.76 -1.457937254842822 0  4.77 -1.500222139260917 0  4.78 -1.541026485551579 0  4.79 -1.580310024751381 0  4.8 -1.618033988749894 0  4.81 -1.654161148549122 0  4.82 -1.688655851004031 0  4.83 -1.721484054007887 0  4.84 -1.752613360087727 0  4.85 -1.782013048376735 0  4.86 -1.80965410493204 0  4.87 -1.835509251367963 0  4.88 -1.859552971776502 0  4.89 -1.88176153790845 0  4.9 -1.902113032590308 0  4.91 -1.920587371353886 0  4.92 -1.937166322257262 0  4.93 -1.951833523877494 0  4.94 -1.964574501457378 0  4.95 -1.975376681190276 0  4.96 -1.984229402628956 0  4.97 -1.99112392920616 0  4.98 -1.996053456856543 0  4.99 -1.999013120731463 0  5 -2 0  5.01 -1.999013120731463 0  5.02 -1.996053456856543 0  5.03 -1.99112392920616 0  5.04 -1.984229402628956 0  5.05 -1.975376681190276 0  5.06 -1.964574501457378 0  5.07 -1.951833523877494 0  5.08 -1.937166322257262 0  5.09 -1.920587371353886 0  5.1 -1.902113032590308 0  5.11 -1.88176153790845 0  5.12 -1.859552971776503 0  5.13 -1.835509251367963 0  5.14 -1.80965410493204 0  5.15 -1.782013048376735 0  5.16 -1.752613360087727 0  5.17 -1.721484054007888 0  5.18 -
[...]
<PointData  Scalars="f_54-1"> 
<DataArray  type="Float64"  Name="f_54-1"  format="ascii">-7.0177919528879173e+01  -7.0193757642791681e+01  -7.0097918465477633e+01  -7.0014742098579305e+01  -6.9942113532166530e+01  -6.9865082403650263e+01  -6.9783158324372224e+01  -6.9701170355135204e+01  -6.9621295610513030e+01  -6.9541341489473709e+01  -6.9461545289087027e+01  -6.9381606936045074e+01  -6.9301343400808548e+01  -6.9220695023422707e+01  -6.9140860619423108e+01  -6.9060635946618874e+01  -6.8981015580829634e+01  -6.8901030792169081e+01  -6.8821043351115634e+01  -6.8741213133394012e+01  -6.8661132481702523e+01  -6.8581247393308146e+01  -6.8501339316759100e+01  -6.8421516907951158e+01  -6.8342156339470662e+01  -6.8262224881269688e+01  -6.8182624930828595e+01  -6.8103419298898345e+01  -6.8023131112549208e+01  -6.7943646461948177e+01  -6.7864101176657911e+01  -6.7784892947524270e+01  -6.7706123077302323e+01  -6.7626431838191124e+01  -6.7547271680046450e+01  -6.7468095248899900e+01  -6.7389177113639462e+01  -6.7310088640494456e+01  -6.7230885477616980e+01  -6.7152006511477708e+01  -6.7073958118699380e+01  -6.6994747803598997e+01  -6.6916089102378550e+01  -6.6837117928276029e+01  -6.6758836305921747e+01  -6.6680103340557210e+01  -6.6601795821682146e+01  -6.6523736291438951e+01  -6.6445779590639404e+01  -6.6367217871325948e+01  -6.6289320045982905e+01  -6.6211750691157107e+01  -6.6133839119120168e+01  -6.6055765847163073e+01  -6.5978400659527651e+01  -6.5900641914591318e+01  -6.5823292746016477e+01  -6.5745790129236852e+01  -6.5668774028348892e+01  -6.5591438887408572e+01  -6.5514673724111447e+01  -6.5437695619349213e+01  -6.5361125107528423e+01  -6.5284833859887314e+01  -6.5208435067043467e+01  -6.5132027672745238e+01  -6.5056245778359951e+01  -6.4980324063635749e+01  -6.4904089979736710e+01  -6.4829359775615472e+01  -6.4753340909131182e+01  -6.4678957426308926e+01  -6.4603526997225728e+01  -6.4529351558059901e+01  -6.4454740404278937e+01  -6.4380519265565965e+01  -6.4306820603927051e+01  -6.4232786911308537e+01  -6.4160589963788752e+01  -6.4087310273212225e+01  -6.4015179358673507e+01  -6.3942525397349712e+01  -6.3871348828064356e+01  -6.3798701991093509e+01  -6.3728525339826454e+01  -6.3656806190901939e+01  -6.3587304805666427e+01  -6.3517122923714773e+01  -6.3448094263925690e+01  -6.3379363160608158e+01  -6.3313550781409411e+01  -6.3245400609117098e+01  -6.3178884289060761e+01  -6.3112966544212448e+01  -6.3047946215942069e+01  -6.2986376887404667e+01  -6.2921643241694568e+01  -6.2866967554005498e+01  -6.2804411444947057e+01  -6.2751003183523082e+01  -6.2693554247214379e+01  -6.2639534161111008e+01  -6.2590932051794574e+01  -6.2546619668372010e+01  -6.2527537388908350e+01  -6.2476973604592864e+01  -6.2461393267633262e+01  -6.2444574045571777e+01  -6.2413916518168868e+01  -6.2450586053248472e+01  -6.2436918242695924e+01  -6.2575482185784068e+01  -6.2514214046820875e+01  -6.2983037294888632e+01  -6.3686375453723265e+01  -6.2903677682092585e+01  -6.7376792870995899e+01  -5.4043108251193331e+01  -5.0058020190287962e+01  -5.4487145039696344e+01  -5.5789317714195988e+01  -5.6242884847872070e+01  -5.6714710574028828e+01  -5.6983168272410772e+01  -5.7256449673652526e+01  -5.7393721525931916e+01  -5.7559231940083897e+01  -5.7634253502406487e+01  -5.7700774090607254e+01  -5.7745062225955451e+01  -5.7789924384072698e+01  -5.7793009198797748e+01  -5.7814451602779123e+01  -5.7811904665461732e+01  -5.7819483253982334e+01  -5.7812909556510839e+01  -5.7815294855320602e+01  -5.7810077806768582e+01  -5.7809875830838457e+01  -5.7806860636830883e+01  -5.7805814913352279e+01  -5.7804149841242186e+01  -5.7803199032572721e+01  -5.7802571666899183e+01  -5.7802078077358054e+01  -5.7801367020115876e+01  -5.7801482833643298e+01  -5.7801246172865561e+01  -5.7801208979873294e+01  -5.7801070941538669e+01  -5.7801030747374874e+01  -5.7801051182612980e+01  -5.7801012466302332e+01  -5.7800861258741953e+01  -5.7801057692005749e+01  -5.7800870685534619e+01  -5.7801077734121684e+01  -5.7801386111621241e+01  -5.7801285641778094e+01  -5.7801736357286600e+01  -5.7801628107043321e+01  -5.7802152925073770e+01  -5.7802387640138306e+01  -5.7803241555003702e+01  -5.7802950495303108e+01  -5.7804236734095625e+01  -5.7802538893469261e+01  -5.7803846207042852e+01  -5.7803052821643178e+01  -5.7802876971411678e+01  -5.7804570155750923e+01  -5.7801963011515731e+01  -5.7803161705350171e+01  -5.7802268445316251e+01  -5.7802118606722821e+01  -5.7801977055053257e+01  -5.7801392984343856e+01  -5.7801663500907551e+01  -5.7801000369173650e+01  -5.7801012736102656e+01  -5.7801136286390573e+01  -5.7801083345320102e+01  -5.7801294322196902e+01  -5.7801024871977205e+01  -5.7801179871596830e+01  -5.7801313635702741e+01  -5.7801160941720674e+01  -5.7801176747746069e+01  -5.7801204698671178e+01  -5.7800992155981895e+01  -5.7800935647063469e+01  -5.7800590137205177e+01  -5.7799872381314167e+01  -5.7799473437132427e+01  -5.7798340427342573e+01  -5.7797272727671206e+01  -5.7795562759649435e+01  -5.7793629671796182e+01  -5.7792431258653671e+01  -5.7787705192715613e+01  -5.7789210522644986e+01  -5.7783747415397556e+01  -5.7788739489694969e+01  -5.7785526660023201e+01  -5.7805698429630873e+01  -5.7805977090850661e+01  -5.7844652280482762e+01  -5.7881658310322095e+01  -5.7939247771638080e+01  -5.8014612184605411e+01  -5.8140044156952705e+01  -5.8330913640914929e+01  -5.8495556902897313e+01  -5.8808292461052552e+01  -5.9178205424885469e+01  -5.9605400076354556e+01  -6.0524142266924599e+01  -6.2900723698302023e+01  -6.9100129961233662e+01  -3.7430275084591365e+01  -5.3687773040427764e+01  -5.1364365371826587e+01  -5.3137953364939847e+01  -5.2798052603999878e+01  -5.3173872879875226e+01  -5.3127379761288836e+01  -5.3232052744101189e+01  -5.3213358002582083e+01  -5.3208073792343647e+01  -5.3205613484532421e+01  -5.3177101815360516e+01  -5.3154649778480575e+01  -5.3110378521297832e+01  -5.3076166514340471e+01  -5.3026447188619834e+01  -5.2982957892053619e+01  -5.2933687985845367e+01  -5.2882564793369617e+01  -5.2831232053993205e+01  -5.2778969073847001e+01  -5.2720388314336333e+01  -5.2666616853121283e+01  -5.2606915015686496e+01  -5.2549331130498942e+01  -5.2487813402519201e+01  -5.2429500606790441e+01  -5.2367464466099314e+01  -5.2308699414700584e+01  -5.2245862421033486e+01  -5.2185440062008688e+01  -5.2122900420941733e+01  -5.2062770540306921e+01  -5.1999296256935025e+01  -5.1939908723459943e+01  -5.1876938684676873e+01  -5.1818287355249545e+01  -5.1755713992283191e+01  -5.1696320963803224e+01  -5.1635433300625728e+01  -5.1576519901001120e+01  -5.1519151957593955e+01  -5.1458997249849872e+01  -5.1404308326311153e+01  -5.1345308921699505e+01  -5.1292807137450588e+01  -5.1235053882977255e+01  -5.1186775930054878e+01  -5.1134812998810034e+01  -5.1097500143912107e+01  -5.1046594993517182e+01  -5.1006103549771069e+01  -5.0971704483931525e+01  -5.0938421510331388e+01  -5.0918865450024711e+01  -5.0898810634030468e+01  -5.0918832521650884e+01  -5.0920159322136470e+01  -5.0952755393442047e+01  -5.1070210347034809e+01  -5.1006975774411394e+01  -5.1784572123956067e+01  -5.2320782550114068e+01  -5.2283063356666602e+01  -5.7275703512684181e+01  -3.7888675070268256e+01  -4.1208398253459556e+01  -4.3745834497695533e+01  -4.4324927760096266e+01  -4.5031269031878843e+01  -4.5313132493173384e+01  -4.5643035535972970e+01  -4.5806724672026384e+01  -4.5988440854256581e+01  -4.6126722887586944e+01  -4.6184994329820221e+01  -4.6265621873456695e+01  -4.6285792938585075e+01  -4.6332061615471787e+01  -4.6329063211803017e+01  -4.6350539824893438e+01  -4.6346305978311975e+01  -4.6352319685356235e+01  -4.6346193845580586e+01  -4.6347866876947577e+01  -4.6343136910001071e+01  -4.6341869432952180e+01  -4.6340051378043029e+01  -4.6337974470211932e+01  -4.6336947557908644e+01  -4.6336089894499942e+01  -4.6335300719417596e+01  -4.6335039174441278e+01  -4.6334562942375648e+01  -4.6334386652762177e+01  -4.6334407817636738e+01  -4.6334320084161071e+01  -4.6334484665617666e+01  -4.6334433476073023e+01  -4.6334590351807854e+01  -4.6334631847499587e+01  -4.6334710098919771e+01  -4.6334685845495294e+01  -4.6334933382826634e+01  -4.6334818778566301e+01  -4.6334836713896458e+01  -4.6334863354253521e+01  -4.6334848274781343e+01  -4.6334799792735623e+01  -4.6334535332392832e+01  -4.6334679240186333e+01  -4.6335044706079607e+01  -4.6334453864020226e+01  -4.6334197697765987e+01  -4.6334985205521882e+01  -4.6334449079776242e+01  -4.6334521655151072e+01  -4.6334563280361820e+01  -4.6334376255765498e+01  -4.6334833132282725e+01  -4.6334619413544424e+01  -4.6334676806916491e+01  -4.6335093331187878e+01  -4.6334555050180661e+01  -4.6334907312945781e+01  -4.6334806690441837e+01  -4.6334919336026367e+01  -4.6334967496146703e+01  -4.6334730657393195e+01  -4.6334891584856216e+01  -4.6334704754876199e+01  -4.6334699737683813e+01  -4.6334738780626637e+01  -4.6334532514899919e+01  -4.6334450534715067e+01  -4.6334580682654170e+01  -4.6334057687030167e+01  -4.6334047306809069e+01  -4.6333908549701512e+01  -4.6333457182873069e+01  -4.6332881072774335e+01  -4.6332336003106313e+01  -4.6331163913308991e+01  -4.6329725305461110e+01  -4.6328748354426438e+01  -4.6325693227214330e+01  -4.6324948075883668e+01  -4.6321649104358457e+01  -4.6320365248772013e+01  -4.6318263117035720e+01  -4.6322151250263786e+01  -4.6321798930824947e+01  -4.6337893727560960e+01  -4.6359022270059022e+01  -4.6387887731729592e+01  -4.6424338831759172e+01  -4.6505065977847138e+01  -4.6574106222984604e+01  -4.6743475425277687e+01  -4.6866011075578726e+01  -4.7160825812571268e+01  -4.7418193818478244e+01  -4.7896520526420595e+01  -4.8379418330845738e+01  -5.0149208027036849e+01  -5.8659108850971037e+01  -4.6453745871002873e+01  -3.4539983998134829e+01  -4.1825885675883484e+01  -4.0549523739349453e+01  -4.1681248823161248e+01  -4.1552298094113596e+01  -4.1639877645541453e+01  -4.1746977008688091e+01  -4.1756201297650854e+01  -4.1772062973337960e+01  -4.1751488024618652e+01  -4.1752226231577474e+01  -4.1711446329488986e+01  -4.1697588408422632e+01  -4.1652981466750127e+01  -4.1626924678356048e+01  -4.1572649982016031e+01  -4.1528643253398748e+01  -4.1472569307139281e+01  -4.1423593580427912e+01  -4.1365416237397049e+01  -4.1314305450534192e+01  -4.1255381532066991e+01  -4.1200463814633437e+01  -4.1139953295535548e+01  -4.1082327837252329e+01  -4.1020869011541592e+01  -4.0960968226545042e+01  -4.0898565814103499e+01  -4.0838456351820881e+01  -4.0775422651163886e+01  -4.0715128916820802e+01  -4.0652538896038330e+01  -4.0591730100990773e+01  -4.0529104217079357e+01  -4.0468574820307154e+01  -4.0405766933965516e+01  -4.0345953654284983e+01  -4.0283400254677971e+01  -4.0224333513481724e+01  -4.0162890189149920e+01  -4.0103574906742281e+01  -4.0043358432944991e+01  -3.9986478381846723e+01  -3.9929297139320752e+01  -3.9871863443828822e+01  -3.9819448125352878e+01  -3.9763419725496156e+01  -3.9713761934978379e+01  -3.9661322612342772e+01  -3.9621307101452537e+01  -3.9574040642791559e+01  -3.9530339217018657e+01  -3.9499044668440156e+01  -3.9464042311466585e+01  -3.9441978672159813e+01  -3.9425596135829338e+01  -3.9437007952382260e+01  -3.9444876013553326e+01  -3.9468938548907012e+01  -3.9619565446555924e+01  -3.9522237202286270e+01  -4.0408281942239633e+01  -4.0900559760221093e+01  -4.1233526774311571e+01  -4.5995602270583682e+01  -2.4846118240584914e+01  -3.0263265795374906e+01  -3.2519335945126620e+01  -3.3183512191537581e+01  -3.3663691153691602e+01  -3.3979005009412091e+01  -3.4266364917184831e+01  -3.4414789189729042e+01  -3.4584540780959301e+01  -3.4697238331657012e+01  -3.4764945796921502e+01  -3.4811529704422064e+01  -3.4856338719036692e+01  -3.4867968942463058e+01  -3.4881348062851529e+01  -3.4893914667730577e+01  -3.4890727740535404e+01  -3.4893245514079737e+01  -3.4889895066771437e+01  -3.4888331248671847e+01  -3.4885163504244971e+01  -3.4883959799566739e+01  -3.4881828704542748e+01  -3.4880685213494630e+01  -3.4879410912977413e+01  -3.4878747303183872e+01  -3.4878072874288542e+01  -3.4877865817007013e+01  -3.4877681945138065e+01  -3.4877496362502661e+01  -3.4877510218630320e+01  -3.4877562996207374e+01  -3.4877564168772643e+01  -3.4877702432656868e+01  -3.4877672865338333e+01  -3.4877874277780734e+01  -3.4877849933974616e+01  -3.4877887898157816e+01  -3.4878061875998220e+01  -3.4877897530695641e+01  -3.4878140720083138e+01  -3.4877812532333834e+01  -3.4878025356910300e+01  -3.4877797932039584e+01  -3.4878713949942615e+01  -3.4877084901278096e+01  -3.4878011244516117e+01  -3.4877863425898774e+01  -3.4878042937210758e+01  -3.4877519263352916e+01  -3.4877912904255929e+01  -3.4877848861636906e+01  -3.4877591928521625e+01  -3.4878068679095243e+01  -3.4877825885885031e+01  -3.4877924169458964e+01  -3.4877924015450745e+01  -3.4877944001391263e+01  -3.4878002117306245e+01  -3.4877824105018554e+01  -3.4878145483597443e+01  -3.4877926697892363e+01  -3.4878062122123509e+01  -3.4877926071263246e+01  -3.4877958073024466e+01  -3.4877881482803090e+01  -3.4877854842370247e+01  -3.4877821256524534e+01  -3.4877714390731434e+01  -3.4877634249880209e+01  -3.4877540335152943e+01  -3.4877275378543359e+01  -3.4877275250126623e+01  -3.4876736646547492e+01  -3.4876320333708648e+01  -3.4875706822148466e+01  -3.4874844361456297e+01  -3.4873470921479068e+01  -3.4872332065077849e+01  -3.4870029132297425e+01  -3.4868798945018334e+01  -3.4865609669176649e+01  -3.4864208297452542e+01  -3.4860730688612932e+01  -3.4862985749399691e+01  -3.4860478592929596e+01  -3.4872543015973008e+01  -3.4886549677885441e+01  -3.4895597155175885e+01  -3.4947077071969680e+01  -3.4979251687766698e+01  -3.5073233235221089e+01  -3.5159303362002049e+01  -3.5309159170964151e+01  -3.5527026512670759e+01  -3.5760820799594747e+01  -3.6080585684405833e+01  -3.6598736851524080e+01  -3.7228590414402888e+01  -3.9405951904410649e+01  -4.5270988375255563e+01  -2.3065901535627116e+01  -2.8908175118273942e+01  -2.8914769612884434e+01  -3.0433135612398189e+01  -2.9876803728809797e+01  -3.0251165027975304e+01  -3.0257411147088202e+01  -3.0313842544654314e+01  -3.0318119652440696e+01  -3.0328339889283747e+01  -3.0302614829734519e+01  -3.0290550462527520e+01  -3.0247647347607259e+01  -3.0220197275297792e+01  -3.0175257568139493e+01  -3.0133396014464463e+01  -3.0087076065981520e+01  -3.0034514229358940e+01  -2.9988342016750654e+01  -2.9931889270868428e+01  -2.9881247953129140e+01  -2.9822275800410083e+01  -2.9768932205083196e+01  -2.9709111651016226e+01  -2.9652860583560052e+01  -2.9591146036150953e+01  -2.9532514028540412e+01  -2.9470767157058500e+01  -2.9409388737779995e+01  -2.9348032181799599e+01  -2.9285311391812670e+01  -2.9224531998719705e+01  -2.9161354640139681e+01  -2.9099845158491295e+01  -2.9036453408604899e+01  -2.8975839912151308e+01  -2.8912339924719600e+01  -2.8853019202605296e+01  -2.8790530154556297e+01  -2.8733729460845094e+01  -2.8671983954686475e+01  -2.8613808429188136e+01  -2.8556483595878110e+01  -2.8497101729901704e+01  -2.8445523859873081e+01  -2.8386763290362591e+01  -2.8332682875443293e+01  -2.8281069952121566e+01  -2.8229905489309058e+01  -2.8183491116392691e+01  -2.8139670640691619e+01  -2.8097824493172336e+01  -2.8066918016857624e+01  -2.8030957341275283e+01  -2.8009229779084876e+01  -2.7992572377757039e+01  -2.7972186779113802e+01  -2.8025626618227911e+01  -2.7970991472539602e+01  -2.8203285085507432e+01  -2.8200918327853838e+01  -2.8573671355354545e+01  -2.8736925352849052e+01  -2.6466425494689457e+01  -3.6451986994315291e+01  -2.1055369877232764e+01  -1.6647547755429201e+01  -2.0107468942294389e+01  -2.1395151936722918e+01  -2.1887831514902768e+01  -2.2333019143125238e+01  -2.2619062924370006e+01  -2.2882408001114516e+01  -2.3022599058578539e+01  -2.3188667158798037e+01  -2.3263638965068584e+01  -2.3330520510096321e+01  -2.3374895601247758e+01  -2.3419156243199346e+01  -2.3424147932195297e+01  -2.3444201184178475e+01  -2.3442482779945880e+01  -2.3447475624035846e+01  -2.3444251978278388e+01  -2.3445158443633087e+01  -2.3440610182918764e+01  -2.3440052870214945e+01  -2.3437343468228519e+01  -2.3436181361347980e+01  -2.3434659608815306e+01  -2.3433583163793095e+01  -2.3432954749802594e+01  -2.3432469521923121e+01  -2.3431854297087295e+01  -2.3431784957129555e+01  -2.3431499846954729e+01  -2.3431515539988109e+01  -2.3431366671446810e+01  -2.3431292563779699e+01  -2.3431263725333245e+01  -2.3431220683002060e+01  -2.3431168063891537e+01  -2.3431192864673253e+01  -2.3431139926678121e+01  -2.3431167414144326e+01  -2.3430942510017722e+01  -2.3431311644210439e+01  -2.3431106469453265e+01  -2.3431029263037011e+01  -2.3431248872393333e+01  -2.3431128050338501e+01  -2.3431185694868791e+01  -2.3431201716290488e+01  -2.3431172558416456e+01  -2.3431251710814646e+01  -2.3431111146844266e+01  -2.3431328916743187e+01  -2.3431238767810033e+01  -2.3431044027383781e+01  -2.3431327104334500e+01  -2.3431179923977208e+01  -2.3431128035221246e+01  -2.3431308004394282e+01  -2.3431011102580676e+01  -2.3431154257392979e+01  -2.3431162103362940e+01  -2.3431132336568844e+01  -2.3431167856645839e+01  -2.3431202228168090e+01  -2.3431206744656123e+01  -2.3431275128119275e+01  -2.3431320467430854e+01  -2.3431351436173802e+01  -2.3431451230174623e+01  -2.3431409152167067e+01  -2.3431543561713788e+01  -2.3431431483916516e+01  -2.3431373754973439e+01  -2.3431291593449508e+01  -2.3430895998872082e+01  -2.3430456826936457e+01  -2.3429993254854214e+01  -2.3428747915209325e+01  -2.3427806856240931e+01  -2.3426023612735754e+01  -2.3424112980710859e+01  -2.3422765685004720e+01  -2.3418089468829240e+01  -2.3419422446591174e+01  -2.3413675805606552e+01  -2.3418761869920317e+01  -2.3415403909260004e+01  -2.3435511848620056e+01  -2.3435677645102615e+01  -2.3474233627296897e+01  -2.3511200785965777e+01  -2.3568475489417924e+01  -2.3644462362129715e+01  -2.3768677225932972e+01  -2.3959968689305089e+01  -2.4123537882937168e+01  -2.4439876534147221e+01  -2.4827107177573236e+01  -2.5224176554512301e+01  -2.6234918692379853e+01  -2.9990603443530130e+01  -2.7911717258663231e+01  -9.5469136610158447e+00  -1.9460856821927372e+01  -1.6967257614295857e+01  -1.8836361721759708e+01  -1.8537427510396530e+01  -1.8706731735024015e+01  -1.8795529603678414e+01  -1.8797277561735172e+01  -1.8862818685559059e+01  -1.8829283755496114e+01  -1.8839729192103100e+01  -1.8809126619415952e+01  -1.8784661192789425e+01  -1.8740191557610576e+01  -1.8707479195396338e+01  -1.8658239898249825e+01  -1.8618266054032883e+01  -1.8565163258085708e+01  -1.8518172030367477e+01  -1.8462312408642823e+01  -1.8408865263408632e+01  -1.8350841757322772e+01  -1.8294406741500552e+01  -1.8236491081561208e+01  -1.8176093711448313e+01  -1.8118686653334066e+01  -1.8057257834523799e+01  -1.7998022823013031e+01  -1.7936331731363101e+01  -1.7876245951287057e+01  -1.7814353946860276e+01  -1.7752797561733317e+01  -1.7690431465061351e+01  -1.7629507650489575e+01  -1.7566528695685165e+01  -1.7506042177736507e+01  -1.7442999402165778e+01  -1.7383826368091903e+01  -1.7321137556817192e+01  -1.7264600903557412e+01  -1.7202575161580178e+01  -1.7146798951867314e+01  -1.7085818485191890e+01  -1.7028788329754217e+01  -1.6971861240128050e+01  -1.6916654580411503e+01  -1.6863672395447441e+01  -1.6810828105893812e+01  -1.6759502512712299e+01  -1.6716732350391716e+01  -1.6670992490228087e+01  -1.6634474234381457e+01  -1.6592509201713206e+01  -1.6574619626107278e+01  -1.6536475683133986e+01  -1.6540116297324950e+01  -1.6523183633580960e+01  -1.6552694484575948e+01  -1.6609460628081074e+01  -1.6647653931545804e+01  -1.6833972219525091e+01  -1.7020522994120565e+01  -1.7694694282699295e+01  -1.6230833302756636e+01  -3.1775533281482435e+01  8.2008593827036402e-01  -6.3715835619381087e+00  -9.1524576217714326e+00  -1.0087474965598719e+01  -1.0590669937319962e+01  -1.0930626574609432e+01  -1.1259165652771724e+01  -1.1423345425417031e+01  -1.1599692674749040e+01  -1.1742284579871372e+01  -1.1798551560243453e+01  -1.1878973221311073e+01  -1.189918640