<?xml version="1.0"?>
<VTKFile type="UnstructuredGrid"  version="0.1"  >
<UnstructuredGrid>
<Piece  NumberOfPoints="5023" NumberOfCells="7844">
<Points>
<DataArray  type="Float64"  NumberOfComponents="3"  format="ascii">0 0.01 0  0 0 0  0.01 0 0  0.02 0 0  0.03 0 0  0.04 0 0  0.05 0 0  0.06 0 0  0.07000000000000001 0 0  0.08 0 0  0.09 0 0  0.1 0 0  0.11 0 0  0.12 0 0  0.13 0 0  0.14 0 0  0.15 0 0  0.16 0 0  0.17 0 0  0.18 0 0  0.19 0 0  0.2 0 0  0.21 0 0  0.22 0 0  0.23 0 0  0.24 0 0  0.25 0 0  0.26 0 0  0.27 0 0  0.28 0 0  0.29 0 0  0.3 0 0  0.31 0 0  0.32 0 0  0.33 0 0  0.34 0 0  0.35 0 0  0.36 0 0  0.37 0 0  0.38 0 0  0.39 0 0  0.4 0 0  0.41 0 0  0.42 0 0  0.43 0 0  0.44 0 0  0.45 0 0  0.46 0 0  0.47 0 0  0.48 0 0  0.49 0 0  0.5 0 0  0.51 0 0  0.52 0 0  0.53 0 0  0.54 0 0  0.55 0 0  0.5600000000000001 0 0  0.57 0 0  0.58 0 0  0.59 0 0  0.6 0 0  0.61 0 0  0.62 0 0  0.63 0 0  0.64 0 0  0.65 0 0  0.66 0 0  0.67 0 0  0.68 0 0  0.6899999999999999 0 0  0.7 0 0  0.71 0 0  0.72 0 0  0.73 0 0  0.74 0 0  0.75 0 0  0.76 0 0  0.77 0 0  0.78 0 0  0.79 0 0  0.8 0 0  0.8100000000000001 0 0  0.82 0 0  0.83 0 0  0.84 0 0  0.85 0 0  0.86 0 0  0.87 0 0  0.88 0 0  0.89 0 0  0.9 0 0  0.91 0 0  0.92 0 0  0.93 0 0  0.9399999999999999 0 0  0.95 0 0  0.96 0 0  0.97 0 0  0.98 0 0  0.99 0 0  1 0 0  1.01 0 0  1.02 0 0  1.03 0 0  1.04 0 0  1.05 0 0  1.06 0 0  1.07 0 0  1.08 0 0  1.09 0 0  1.1 0 0  1.11 0 0  1.12 0 0  1.13 0 0  1.14 0 0  1.15 0 0  1.16 0 0  1.17 0 0  1.18 0 0  1.19 0 0  1.2 0 0  1.21 0 0  1.22 0 0  1.23 0 0  1.24 0 0  1.25 0 0  1.26 0 0  1.27 0 0  1.28 0 0  1.29 0 0  1.3 0 0  1.31 0 0  1.32 0 0  1.33 0 0  1.34 0 0  1.35 0 0  1.36 0 0  1.37 0 0  1.38 0 0  1.39 0 0  1.4 0 0  1.41 0 0  1.42 0 0  1.43 0 0  1.44 0 0  1.45 0 0  1.46 0 0  1.47 0 0  1.48 0 0  1.49 0 0  1.5 0 0  1.51 0 0  1.52 0 0  1.53 0 0  1.54 0 0  1.55 0 0  1.56 0 0  1.57 0 0  1.58 0 0  1.59 0 0  1.6 0 0  1.61 0 0  1.62 0 0  1.63 0 0  1.64 0 0  1.65 0 0  1.66 0 0  1.67 0 0  1.68 0 0  1.69 0 0  1.7 0 0  1.71 0 0  1.72 0 0  1.73 0 0  1.74 0 0  1.75 0 0  1.76 0 0  1.77 0 0  1.78 0 0  1.79 0 0  1.8 0 0  1.81 0 0  1.82 0 0  1.83 0 0  1.84 0 0  1.85 0 0  1.86 0 0  1.87 0 0  1.88 0 0  1.89 0 0  1.9 0 0  1.91 0 0  1.92 0 0  1.93 0 0  1.94 0 0  1.95 0 0  1.96 0 0  1.97 0 0  1.98 0 0  1.99 0 0  2 0 0  2.01 0 0  2.02 0 0  2.03 0 0  2.04 0 0  2.05 0 0  2.06 0 0  2.07 0 0  2.08 0 0  2.09 0 0  2.1 0 0  2.11 0 0  2.12 0 0  2.13 0 0  2.14 0 0  2.15 0 0  2.16 0 0  2.17 0 0  2.18 0 0  2.19 0 0  2.2 0 0  2.21 0 0  2.22 0 0  2.23 0 0  2.24 0 0  2.25 0 0  2.26 0 0  2.27 0 0  2.28 0 0  2.29 0 0  2.3 0 0  2.31 0 0  2.32 0 0  2.33 0 0  2.34 0 0  2.35 0 0  2.36 0 0  2.37 0 0  2.38 0 0  2.39 0 0  2.4 0 0  2.41 0 0  2.42 0 0  2.43 0 0  2.44 0 0  2.45 0 0  2.46 0 0  2.47 0 0  2.48 0 0  2.49 0 0  2.5 0 0  2.51 0 0  2.52 0 0  2.53 0 0  2.54 0 0  2.55 0 0  2.56 0 0  2.57 0 0  2.58 0 0  2.59 0 0  2.6 0 0  2.61 0 0  2.62 0 0  2.63 0 0  2.64 0 0  2.65 0 0  2.66 0 0  2.67 0 0  2.68 0 0  2.69 0 0  2.7 0 0  2.71 0 0  2.72 0 0  2.73 0 0  2.74 0 0  2.75 0 0  2.76 0 0  2.77 0 0  2.78 0 0  2.79 0 0  2.8 0 0  2.81 0 0  2.82 0 0  2.83 0 0  2.84 0 0  2.85 0 0  2.86 0 0  2.87 0 0  2.88 0 0  2.89 0 0  2.9 0 0  2.91 0 0  2.92 0 0  2.93 0 0  2.94 0 0  2.95 0 0  2.96 0 0  2.97 0 0  2.98 0 0  2.99 0 0  3 0 0  3.01 0 0  3.02 0 0  3.03 0 0  3.04 0 0  3.05 0 0  3.06 0 0  3.07 0 0  3.08 0 0  3.09 0 0  3.1 0 0  3.11 0 0  3.12 0 0  3.13 0 0  3.14 0 0  3.15 0 0  3.16 0 0  3.17 0 0  3.18 0 0  3.19 0 0  3.2 0 0  3.21 0 0  3.22 0 0  3.23 0 0  3.24 0 0  3.25 0 0  3.26 0 0  3.27 0 0  3.28 0 0  3.29 0 0  3.3 0 0  3.31 0 0  3.32 0 0  3.33 0 0  3.34 0 0  3.35 0 0  3.36 0 0  3.37 0 0  3.38 0 0  3.39 0 0  3.4 0 0  3.41 0 0  3.42 0 0  3.43 0 0  3.44 0 0  3.45 0 0  3.46 0 0  3.47 0 0  3.48 0 0  3.49 0 0  3.5 0 0  3.51 0 0  3.52 0 0  3.53 0 0  3.54 0 0  3.55 0 0  3.56 0 0  3.57 0 0  3.58 0 0  3.59 0 0  3.6 0 0  3.61 0 0  3.62 0 0  3.63 0 0  3.64 0 0  3.65 0 0  3.66 0 0  3.67 0 0  3.68 0 0  3.69 0 0  3.7 0 0  3.71 0 0  3.72 0 0  3.73 0 0  3.74 0 0  3.75 0 0  3.76 0 0  3.77 0 0  3.78 0 0  3.79 0 0  3.8 0 0  3.81 0 0  3.82 0 0  3.83 0 0  3.84 0 0  3.85 0 0  3.86 0 0  3.87 0 0  3.88 0 0  3.89 0 0  3.9 0 0  3.91 0 0  3.92 0 0  3.93 0 0  3.94 0 0  3.95 0 0  3.96 0 0  3.97 0 0  3.98 0 0  3.99 0 0  4 0 0  4.01 0 0  4.02 0 0  4.03 0 0  4.04 0 0  4.05 0 0  4.06 0 0  4.07 0 0  4.08 0 0  4.09 0 0  4.1 0 0  4.11 0 0  4.12 0 0  4.13 0 0  4.14 0 0  4.15 0 0  4.16 0 0  4.17 0 0  4.18 0 0  4.19 0 0  4.2 0 0  4.21 0 0  4.22 0 0  4.23 0 0  4.24 0 0  4.25 0 0  4.26 0 0  4.27 0 0  4.28 0 0  4.29 0 0  4.3 0 0  4.31 0 0  4.32 0 0  4.33 0 0  4.34 0 0  4.35 0 0  4.36 0 0  4.37 0 0  4.38 0 0  4.39 0 0  4.4 0 0  4.41 0 0  4.42 0 0  4.43 0 0  4.44 0 0  4.45 0 0  4.46 0 0  4.47 0 0  4.48 0 0  4.49 0 0  4.5 0 0  4.51 -0.06282151815625525 0  4.52 -0.1255810390586241 0  4.53 -0.1882166266370302 0  4.54 -0.2506664671286087 0  4.55 -0.3128689300804606 0  4.56 -0.3747626291714468 0  4.57 -0.4362864827930868 0  4.58 -0.49737977432971 0  4.59 -0.5579822120784577 0  4.6 -0.6180339887498927 0  4.61 -0.6774758404905846 0  4.62 -0.7362491053693565 0  4.63 -0.7942957812695606 0  4.64 -0.8515585831301434 0  4.65 -0.9079809994790955 0  4.66 -0.9635073482034314 0  4.67 -1.018082831500742 0  4.68 -1.071653589957992 0  4.69 -1.124166755704263 0  4.7 -1.175570504584947 0  4.71 -1.225814107305953 0  4.72 -1.274847979497378 0  4.73 -1.322623730647306 0  4.74 -1.369094211857378 0  4.75 -1.414213562373095 0  4.76 -1.457937254842822 0  4.77 -1.500222139260917 0  4.78 -1.541026485551579 0  4.79 -1.580310024751381 0  4.8 -1.618033988749894 0  4.81 -1.654161148549122 0  4.82 -1.688655851004031 0  4.83 -1.721484054007887 0  4.84 -1.752613360087727 0  4.85 -1.782013048376735 0  4.86 -1.80965410493204 0  4.87 -1.835509251367963 0  4.88 -1.859552971776502 0  4.89 -1.88176153790845 0  4.9 -1.902113032590308 0  4.91 -1.920587371353886 0  4.92 -1.937166322257262 0  4.93 -1.951833523877494 0  4.94 -1.964574501457378 0  4.95 -1.975376681190276 0  4.96 -1.984229402628956 0  4.97 -1.99112392920616 0  4.98 -1.996053456856543 0  4.99 -1.999013120731463 0  5 -2 0  5.01 -1.999013120731463 0  5.02 -1.996053456856543 0  5.03 -1.99112392920616 0  5.04 -1.984229402628956 0  5.05 -1.975376681190276 0  5.06 -1.964574501457378 0  5.07 -1.951833523877494 0  5.08 -1.937166322257262 0  5.09 -1.920587371353886 0  5.1 -1.902113032590308 0  5.11 -1.88176153790845 0  5.12 -1.859552971776503 0  5.13 -1.835509251367963 0  5.14 -1.80965410493204 0  5.15 -1.782013048376735 0  5.16 -1.752613360087727 0  5.17 -1.721484054007888 0  5.18 -1.688655851004031 0  5.19 -1.654161148549123 0  5.2 -1.618033988749894 0  5.21 -1.580310024751381 0  5.22 -1.54102648555158 0  5.23 -1.500222139260918 0  5.24 -1.457937254842822 0  5.25 -1.414213562373095 0  5.26 -1.369094211857378 0  5.27 -1.322623730647306 0  5.28 -1.274847979497378 0  5.29 -1.225814107305953 0  5.3 -1.175570504584947 0  5.31 -1.124166755704263 0  5.32 -1.071653589957992 0  5.33 -1.018082831500742 0  5.34 -0.9635073482034312 0  5.35 -0.9079809994790962 0  5.36 -0.8515585831301434 0  5.37 -0.7942957812695605 0  5.38 -0.7362491053693571 0  5.39 -0.6774758404905852 0  5.4 -0.6180339887498926 0  5.41 -0.5579822120784582 0  5.42 -0.4973797743297105 0  5.43 -0.4362864827930872 0  5.44 -0.3747626291714474 0  5.45 -0.3128689300804611 0  5.46 -0.2506664671286091 0  5.47 -0.1882166266370305 0  5.48 -0.1255810390586245 0  5.49 -0.06282151815625558 0  5.5 -2.449293598294706e-16 0  5.51 0 0  5.52 0 0  5.53 0 0  5.54 0 0  5.55 0 0  5.56 0 0  5.57 0 0  5.58 0 0  5.59 0 0  5.6 0 0  5.61 0 0  5.62 0 0  5.63 0 0  5.64 0 0  5.65 0 0  5.66 0 0  5.67 0 0  5.68 0 0  5.69 0 0  5.7 0 0  5.71 0 0  5.72 0 0  5.73 0 0  5.74 0 0  5.75 0 0  5.76 0 0  5.77 0 0  5.78 0 0  5.79 0 0  5.8 0 0  5.81 0 0  5.82 0 0  5.83 0 0  5.84 0 0  5.85 0 0  5.86 0 0  5.87 0 0  5.88 0 0  5.89 0 0  5.9 0 0  5.91 0 0  5.92 0 0  5.93 0 0  5.94 0 0  5.95 0 0  5.96 0 0  5.97 0 0  5.98 0 0  5.99 0 0  6 0 0  6.01 0 0  6.02 0 0  6.03 0 0  6.04 0 0  6.05 0 0  6.06 0 0  6.07 0 0  6.08 0 0  6.09 0 0  6.1 0 0  6.11 0 0  6.12 0 0  6.13 0 0  6.14 0 0  6.15 0 0  6.16 0 0  6.17 0 0  6.18 0 0  6.19 0 0  6.2 0 0  6.21 0 0  6.22 0 0  6.23 0 0  6.24 0 0  6.25 0 0  6.26 0 0  6.27 0 0  6.28 0 0  6.29 0 0  6.3 0 0  6.31 0 0  6.32 0 0  6.33 0 0  6.34 0 0  6.35 0 0  6.36 0 0  6.37 0 0  6.38 0 0  6.39 0 0  6.4 0 0  6.41 0 0  6.42 0 0  6.43 0 0  6.44 0 0  6.45 0 0  6.46 0 0  6.47 0 0  6.48 0 0  6.49 0 0  6.5 0 0  6.51 0 0  6.52 0 0  6.53 0 0  6.54 0 0  6.55 0 0  6.56 0 0  6.57 0 0  6.58 0 0  6.59 0 0  6.6 0 0  6.61 0 0  6.62 0 0  6.63 0 0  6.64 0 0  6.65 0 0  6.66 0 0  6.67 0 0  6.68 0 0  6.69 0 0  6.7 0 0  6.71 0 0  6.72 0 0  6.73 0 0  6.74 0 0  6.75 0 0  6.76 0 0  6.77 0 0  6.78 0 0  6.79 0 0  6.8 0 0  6.81 0 0  6.82 0 0  6.83 0 0  6.84 0 0  6.85 0 0  6.86 0 0  6.87 0 0  6.88 0 0  6.89 0 0  6.9 0 0  6.91 0 0  6.92 0 0  6.93 0 0  6.94 0 0  6.95 0 0  6.96 0 0  6.97 0 0  6.98 0 0  6.99 0 0  7 0 0  7.01 0 0  7.02 0 0  7.03 0 0  7.04 0 0  7.05 0 0  7.06 0 0  7.07 0 0  7.08 0 0  7.09 0 0  7.1 0 0  7.11 0 0  7.12 0 0  7.13 0 0  7.14 0 0  7.15 0 0  7.16 0 0  7.17 0 0  7.18 0 0  7.19 0 0  7.2 0 0  7.21 0 0  7.22 0 0  7.23 0 0  7.24 0 0  7.25 0 0  7.26 0 0  7.27 0 0  7.28 0 0  7.29 0 0  7.3 0 0  7.31 0 0  7.32 0 0  7.33 0 0  7.34 0 0  7.35 0 0  7.36 0 0  7.37 0 0  7.38 0 0  7.39 0 0  7.4 0 0  7.41 0 0  7.42 0 0  7.43 0 0  7.44 0 0  7.45 0 0  7.46 0 0  7.47 0 0  7.48 0 0  7.49 0 0  7.5 0 0  7.51 0 0  7.52 0 0  7.53 0 0  7.54 0 0  7.55 0 0  7.56 0 0  7.57 0 0  7.58 0 0  7.59 0 0  7.6 0 0  7.61 0 0  7.62 0 0  7.63 0 0  7.64 0 0  7.65 0 0  7.66 0 0  7.67 0 0  7.68 0 0  7.69 0 0  7.7 0 0  7.71 0 0  7.72 0 0  7.73 0 0  7.74 0 0  7.75 0 0  7.76 0 0  7.77 0 0  7.78 0 0  7.79 0 0  7.8 0 0  7.81 0 0  7.82 0 0  7.83 0 0  7.84 0 0  7.85 0 0  7.86 0 0  7.87 0 0  7.88 0 0  7.89 0 0  7.9 0 0  7.91 0 0  7.92 0 0  7.93 0 0  7.94 0 0  7.95 0 0  7.96 0 0  7.97 0 0  7.98 0 0  7.99 0 0  8 0 0  8.01 0 0  8.02 0 0  8.029999999999999 0 0  8.039999999999999 0 0  8.0500000
[...]
<PointData  Scalars="f_1673"> 
<DataArray  type="Float64"  Name="f_1673"  format="ascii">1.0000000000000000e+00  1.0000000000000000e+00  9.9458695008512088e-01  9.8985177776102151e-01  9.8540426418933680e-01  9.8116901295156222e-01  9.7714208883741749e-01  9.7323304919405873e-01  9.6942553643649731e-01  9.6571250661253838e-01  9.6209013534996146e-01  9.5853147217281875e-01  9.5503434913006813e-01  9.5159145765694042e-01  9.4819731380557293e-01  9.4485296851301537e-01  9.4155499618072824e-01  9.3829105335079022e-01  9.3505952040637552e-01  9.3186444467266072e-01  9.2870269687064977e-01  9.2557202002403283e-01  9.2247246510699987e-01  9.1940597690423631e-01  9.1636992913055393e-01  9.1334999251845161e-01  9.1035791332692573e-01  9.0739091412827844e-01  9.0444556881674221e-01  9.0152049654287403e-01  8.9861796547810979e-01  8.9573523657371612e-01  8.9287146979953969e-01  8.9002565923097998e-01  8.8719984827037823e-01  8.8439129654769488e-01  8.8159324395879268e-01  8.7881448223352709e-01  8.7605277399382386e-01  8.7330834378887812e-01  8.7057874401919955e-01  8.6786617487415130e-01  8.6516783744485648e-01  8.6248135643477331e-01  8.5980597882509269e-01  8.5714461233259287e-01  8.5449470101698677e-01  8.5185843777149861e-01  8.4923448510899024e-01  8.4662408507127640e-01  8.4402673922000127e-01  8.4144469585267379e-01  8.3887562537706484e-01  8.3631358857898053e-01  8.3376333832223160e-01  8.3122315613827880e-01  8.2869518422422295e-01  8.2617716777939598e-01  8.2366908566664354e-01  8.2116980363031356e-01  8.1868332734234417e-01  8.1620716466075582e-01  8.1374122419576145e-01  8.1128492607061664e-01  8.0883955475612379e-01  8.0640301276663828e-01  8.0397293780700951e-01  8.0155316784806030e-01  7.9914128341536772e-01  7.9673753530740310e-01  7.9434241338136102e-01  7.9195735165507808e-01  7.8958024454416942e-01  7.8721273785580492e-01  7.8485278959601290e-01  7.8250117943584829e-01  7.8015754637806367e-01  7.7782277986656689e-01  7.7549517995117645e-01  7.7317736418786731e-01  7.7086706009490191e-01  7.6856472048099200e-01  7.6626965686045445e-01  7.6397934468064344e-01  7.6169799974908237e-01  7.5942350232107891e-01  7.5715720888668125e-01  7.5489858995101855e-01  7.5264857797488960e-01  7.5040546120378993e-01  7.4817123214338133e-01  7.4594367415972507e-01  7.4372324207635920e-01  7.4150922943566810e-01  7.3929940018637197e-01  7.3709763793716832e-01  7.3490187435109400e-01  7.3271315949020066e-01  7.3053125080988823e-01  7.2835800093303293e-01  7.2619140929954284e-01  7.2402853145224477e-01  7.2187263160800219e-01  7.1972224099401505e-01  7.1757915653976112e-01  7.1544154380673974e-01  7.1330955619435343e-01  7.1118314673242478e-01  7.0906492658309650e-01  7.0695292160365786e-01  7.0484472934926701e-01  7.0274442559831729e-01  7.0065048728249135e-01  6.9856402165703724e-01  6.9648324110358906e-01  6.9440593807904560e-01  6.9233596590397184e-01  6.9027133412772756e-01  6.8821138262552595e-01  6.8615708264444153e-01  6.8410985110148803e-01  6.8206810888021141e-01  6.8003314760630984e-01  6.7800285583107800e-01  6.7597885809784708e-01  6.7395908115937286e-01  6.7194507910439760e-01  6.6993662501667328e-01  6.6793188238003121e-01  6.6593413499016840e-01  6.6394170279802656e-01  6.6195682798974420e-01  6.5997748765033182e-01  6.5800439945318956e-01  6.5603693537276242e-01  6.5407300472563634e-01  6.5211486123317208e-01  6.5016132060938092e-01  6.4821425770184227e-01  6.4627181594903849e-01  6.4433505978358863e-01  6.4240285579729983e-01  6.4047579630207108e-01  6.3855383610912730e-01  6.3663843989891067e-01  6.3472799976246752e-01  6.3282071428396014e-01  6.3091903687988482e-01  6.2902181937220925e-01  6.2713144135569499e-01  6.2524603245908839e-01  6.2336532474179207e-01  6.2148872380850273e-01  6.1961791995596949e-01  6.1775130972952053e-01  6.1588969667304627e-01  6.1403219348425031e-01  6.1217802239900609e-01  6.1033024982591222e-01  6.0848725674496484e-01  6.0664918566895365e-01  6.0481621065332236e-01  6.0298921526437121e-01  6.0116667176032579e-01  5.9934700070394586e-01  5.9753297370003755e-01  5.9572308032848653e-01  5.9391913257463280e-01  5.9211929289204546e-01  5.9032438970001566e-01  5.8853391198709681e-01  5.8674893299482145e-01  5.8496756717242993e-01  5.8318988077023604e-01  5.8141816104503408e-01  5.7965080379272027e-01  5.7788810978792682e-01  5.7612976961741036e-01  5.7437718595074427e-01  5.7262873561097960e-01  5.7088289955626359e-01  5.6914264780264101e-01  5.6740674353331300e-01  5.6567620864962254e-01  5.6394931316605590e-01  5.6222517522425841e-01  5.6050636460293524e-01  5.5879138240381920e-01  5.5708145229440487e-01  5.5537511870934286e-01  5.5367333650300798e-01  5.5197565592446241e-01  5.5028323946289182e-01  5.4859433230406018e-01  5.4690863387216371e-01  5.4522827346798530e-01  5.4355181230493621e-01  5.4188008505327268e-01  5.4021208481600558e-01  5.3854689600544192e-01  5.3688747697925154e-01  5.3523229429916208e-01  5.3358139942245197e-01  5.3193430901557159e-01  5.3029183779707723e-01  5.2865232495892278e-01  5.2701532331210243e-01  5.2538341165945213e-01  5.2375518651042452e-01  5.2213198474864075e-01  5.2051259677741013e-01  5.1889727043579159e-01  5.1728600027136606e-01  5.1567918821670433e-01  5.1407570558338389e-01  5.1247693564514396e-01  5.1088136107203341e-01  5.0928995141579314e-01  5.0770177326267785e-01  5.0611729676277095e-01  5.0453652791390025e-01  5.0296051266297581e-01  5.0138802325456855e-01  4.9982027075343494e-01  4.9825559585482510e-01  4.9669369676356945e-01  4.9513631821147203e-01  4.9358213443779436e-01  4.9203151509605508e-01  4.9048439290950163e-01  4.8894248633072851e-01  4.8740427620002069e-01  4.8586875295021242e-01  4.8433845588273622e-01  4.8281212909147569e-01  4.8128824583259877e-01  4.7976840311314672e-01  4.7825170810898676e-01  4.7673962056046915e-01  4.7523069674165902e-01  4.7372548401070019e-01  4.7222366218101725e-01  4.7072623380662426e-01  4.6923172714176553e-01  4.6773928371034429e-01  4.6625119466402676e-01  4.6476619253544932e-01  4.6328483243095897e-01  4.6180666056781233e-01  4.6033295870094015e-01  4.5886233676752514e-01  4.5739604994608740e-01  4.5593274188537736e-01  4.5447293904445613e-01  4.5301629818812944e-01  4.5156352134634925e-01  4.5011313917692680e-01  4.4866481598355323e-01  4.4722075858319477e-01  4.4577972499133350e-01  4.4434291413466703e-01  4.4290925176111606e-01  4.4147902919191895e-01  4.4005230485412838e-01  4.3862970491692099e-01  4.3721004513844014e-01  4.3579242725743250e-01  4.3437891842288961e-01  4.3296824678806722e-01  4.3156084658402272e-01  4.3015682806453087e-01  4.2875716570012984e-01  4.2736060010554971e-01  4.2596595693342104e-01  4.2457523193481322e-01  4.2318734833049565e-01  4.2180178171460175e-01  4.2042056033879804e-01  4.1904256204314061e-01  4.1766687777727313e-01  4.1629567004857793e-01  4.1492761048802329e-01  4.1356230172385555e-01  4.1219999185174672e-01  4.1084138945936921e-01  4.0948534073576542e-01  4.0813198830648900e-01  4.0678223957066867e-01  4.0543467409861739e-01  4.0409035810181770e-01  4.0274867671349074e-01  4.0141001384462427e-01  4.0007420125072318e-01  3.9874208295965613e-01  3.9741234961867994e-01  3.9608428675096130e-01  3.9475981870751164e-01  3.9343781738078004e-01  3.9211881464095483e-01  3.9080241756547962e-01  3.8948974983097467e-01  3.8817957326771491e-01  3.8687300535126939e-01  3.8556883747209442e-01  3.8426755494567438e-01  3.8296886527361446e-01  3.8167338501169229e-01  3.8037980390625992e-01  3.7908788001365140e-01  3.7779947682192544e-01  3.7651348621650688e-01  3.7523096215016233e-01  3.7395094471239165e-01  3.7267371017252676e-01  3.7139930969268431e-01  3.7012828228432010e-01  3.6885956987848867e-01  3.6759249648022985e-01  3.6632876172414913e-01  3.6506722852398249e-01  3.6380829040879187e-01  3.6255203832604621e-01  3.6129930295136065e-01  3.6004895709756696e-01  3.5880004235781393e-01  3.5755403722725537e-01  3.5631015517005549e-01  3.5506951466017972e-01  3.5383105579492424e-01  3.5259505722433748e-01  3.5136141755820577e-01  3.5013128927806236e-01  3.4890347514295289e-01  3.4767717362037687e-01  3.4645399887173750e-01  3.4523307457413177e-01  3.4401507184796343e-01  3.4279871085078278e-01  3.4158402859621456e-01  3.4037240161807159e-01  3.3916275393196471e-01  3.3795531443723076e-01  3.3674983866942754e-01  3.3554725054362827e-01  3.3434631285897365e-01  3.3314692883118963e-01  3.3195031787794249e-01  3.3075563808186509e-01  3.2956377227009420e-01  3.2837348731432703e-01  3.2718470661017246e-01  3.2599892128165670e-01  3.2481501192774276e-01  3.2363230668687532e-01  3.2245237814638866e-01  3.2127426731545644e-01  3.2009742048142070e-01  3.1892295426106471e-01  3.1774996281213175e-01  3.1657828612444222e-01  3.1540930227791975e-01  3.1424196532474635e-01  3.1307651974971518e-01  3.1191301312915531e-01  3.1075176965399148e-01  3.0959200207053655e-01  3.0843469721268929e-01  3.0727871674572904e-01  3.0612447010026467e-01  3.0497148090943366e-01  3.0381948395710717e-01  3.0266952060177710e-01  3.0152051914351435e-01  3.0037328188331491e-01  2.9922748687073919e-01  2.9808384939523547e-01  2.9694139150781484e-01  2.9579980170524756e-01  2.9466017572933006e-01  2.9352154164461042e-01  2.9238491265688327e-01  2.9124912930998187e-01  2.9011461133362737e-01  2.8898105065349328e-01  2.8784905968046059e-01  2.8671748081534137e-01  2.8558638726597940e-01  2.8445672768153962e-01  2.8332750366562437e-01  2.8219955501473720e-01  2.8107190866039283e-01  2.7994495556595805e-01  2.7881867463796028e-01  2.7769343828161430e-01  2.7656813764356603e-01  2.7544364054874354e-01  2.7431885629162756e-01  2.7319441999587391e-01  2.7207006416164581e-01  2.7094634833928893e-01  2.6982219186206530e-01  2.6869795436047966e-01  2.6757395797240158e-01  2.6644918239177545e-01  2.6532408835110088e-01  2.6419886601896292e-01  2.6307256929742318e-01  2.6194548834348297e-01  2.6081741591522362e-01  2.5968851436049778e-01  2.5855815042777819e-01  2.5742680087303749e-01  2.5629328316461736e-01  2.5515833140736316e-01  2.5402185442868153e-01  2.5288268181319018e-01  2.5174138160264203e-01  2.5059777932201832e-01  2.4945089180580743e-01  2.4830113541386237e-01  2.4714809439861421e-01  2.4599167923665233e-01  2.4483067142316220e-01  2.4366609826421873e-01  2.4249693105634129e-01  2.4132329256230331e-01  2.4014406541084668e-01  2.3895812871798727e-01  2.3776464223521374e-01  2.3656272299621714e-01  2.3535125702250892e-01  2.3413409356324594e-01  2.3290700576971984e-01  2.3166961142183493e-01  2.3041950872826375e-01  2.2915546934421677e-01  2.2787664938257610e-01  2.2658123390534032e-01  2.2526662047760862e-01  2.2393196865170373e-01  2.2256990962383003e-01  2.2117905516924055e-01  2.1975384171027240e-01  2.1829237402029689e-01  2.1678107729824914e-01  2.1521858973926181e-01  2.1357427089609729e-01  2.1182711375346205e-01  2.0986522341680011e-01  2.0768677075025088e-01  2.0520107174741012e-01  2.0186758437933491e-01  1.9001241537061656e-01  1.8183568447608239e-01  1.7530524118127427e-01  1.6959025723213444e-01  1.6465774357671562e-01  1.6019514265124488e-01  1.5612225091391663e-01  1.5243828226003561e-01  1.4901688028137131e-01  1.4585734404448897e-01  1.4289758121733551e-01  1.4012111262130261e-01  1.3751018299894330e-01  1.3503486401330611e-01  1.3271041145276008e-01  1.3052409362441181e-01  1.2845564880797899e-01  1.2650259051432655e-01  1.2465255839674044e-01  1.2289863936965335e-01  1.2124849370617734e-01  1.1970369436337824e-01  1.1824632159043902e-01  1.1688098613848273e-01  1.1559925442936446e-01  1.1440965047261129e-01  1.1329726755655492e-01  1.1226079476669368e-01  1.1129934580672611e-01  1.1042198660413578e-01  1.0961405054094746e-01  1.0886472331787550e-01  1.0818704046298640e-01  1.0757088743104676e-01  1.0702309373165809e-01  1.0652873773587361e-01  1.0609153104161335e-01  1.0570299328560434e-01  1.0536917075637503e-01  1.0507647027710811e-01  1.0483100325640315e-01  1.0461962030463008e-01  1.0444247705846739e-01  1.0430198813896746e-01  1.0419465315176922e-01  1.0410904672442420e-01  1.0404787688376535e-01  1.0400769368505604e-01  1.0398560949392383e-01  1.0397768078550219e-01  1.0398557578613074e-01  1.0400926091330617e-01  1.0404792109201139e-01  1.0410800302204089e-01  1.0419106318383747e-01  1.0430150639610013e-01  1.0444285727830409e-01  1.0461967355738237e-01  1.0483071116778955e-01  1.0507583878156539e-01  1.0536819734411920e-01  1.0570159467103887e-01  1.0608959451142083e-01  1.0652607666084032e-01  1.0701944875100422e-01  1.0756569899619038e-01  1.0817964098181737e-01  1.0885390009660756e-01  1.0959387133280438e-01  1.1039688802611292e-01  1.1127799792437117e-01  1.1222590403430426e-01  1.1325386240650365e-01  1.1434939812996144e-01  1.1551899982239879e-01  1.1677570811610671e-01  1.1810546841907808e-01  1.1951958409568497e-01  1.2100607016232375e-01  1.2258143436009264e-01  1.2423255080663720e-01  1.2596115758601140e-01  1.2775456135473467e-01  1.2962141749887998e-01  1.3153595584563119e-01  1.3351800007818362e-01  1.3554898839377977e-01  1.3762576651563566e-01  1.3971672306974781e-01  1.4181037227881127e-01  1.4388934627583455e-01  1.4592917392789576e-01  1.4792252870539616e-01  1.4982196696889541e-01  1.5159644179257306e-01  1.5318462953859047e-01  1.5450231629509853e-01  1.5555506860512122e-01  1.5612962235761355e-01  1.5580667217914668e-01  1.5510435519841567e-01  1.5447250752202657e-01  1.5391051992119620e-01  1.5337369430836675e-01  1.5285653187857190e-01  1.5234783131915480e-01  1.5184796410192697e-01  1.5135648239710295e-01  1.5086831714713994e-01  1.5038441837652466e-01  1.4990432147568328e-01  1.4942699296714154e-01  1.4895202762050347e-01  1.4847907722652773e-01  1.4800766939891588e-01  1.4753790481021045e-01  1.4706932190556782e-01  1.4660209442708683e-01  1.4613609400269142e-01  1.4567155198341822e-01  1.4520800168743880e-01  1.4474558116041719e-01  1.4428401008224681e-01  1.4382364110712775e-01  1.4336411761583406e-01  1.4290531381676319e-01  1.4244780459998094e-01  1.4199113767547761e-01  1.4153531327915397e-01  1.4108034462474911e-01  1.4062651032964996e-01  1.4017341156800217e-01  1.3972112113394239e-01  1.3926949154133428e-01  1.3881895996741977e-01  1.3836909667729080e-01  1.3792009882405418e-01  1.3747187975423486e-01  1.3702473735468981e-01  1.3657823265664962e-01  1.3613219653450309e-01  1.3568722174957190e-01  1.3524292946126201e-01  1.3479949465513671e-01  1.3435679468300560e-01  1.3391520496880838e-01  1.3347431884638214e-01  1.3303450364105207e-01  1.3259536244887540e-01  1.3215707368426938e-01  1.3171955033695310e-01  1.3128301457073205e-01  1.3084702532808332e-01  1.3041151877386795e-01  1.2997707934668667e-01  1.2954335978426310e-01  1.2911073275753857e-01  1.2867882617690113e-01  1.2824776448131930e-01  1.2781757965468005e-01  1.2738846661612840e-01  1.2696006672391805e-01  1.2653217989158017e-01  1.2610535719756988e-01  1.2567921398546453e-01  1.2525389236312387e-01  1.2482941830237768e-01  1.2440608095454601e-01  1.2398349880492281e-01  1.2356139993290850e-01  1.2314033848241566e-01  1.2271998808729229e-01  1.2230024156630538e-01  1.2188165640670945e-01  1.2146389383878756e-01  1.2104671607014585e-01  1.2063074202478606e-01  1.2021557124014615e-01  1.1980112015352479e-01  1.1938744618761137e-01  1.1897475488700336e-01  1.1856269528105789e-01  1.1815134620501258e-01  1.1774095645888115e-01  1.1733109273563525e-01  1.1692209313903251e-01  1.1651375103482711e-01  1.1610626900997281e-01  1.1569957458847312e-01  1.1529390233127340e-01  1.1488884852713374e-01  1.1448426536238715e-01  1.1408066438242127e-01  1.1367770196931194e-01  1.1327554088105442e-01  1.1287407251780221e-01  1.1247365665747035e-01  1.1207392455059140e-01  1.1167521325389475e-01  1.1127716294580946e-01  1.1087992625544886e-01  1.1048342029431907e-01  1.1008784385814309e-01  1.0969279727266973e-01  1.0929821185334203e-01  1.0890462376197332e-01  1.0851171821203076e-01  1.0811982902082666e-01  1.0772861913597584e-01  1.0733817313634836e-01  1.0694852854111186e-01  1.0655985055810646e-01  1.0617181502991811e-01  1.0578423941592115e-01  1.0539761400546693e-01  1.0501158928531606e-01  1.0462630389298005e-01  1.0424176897489440e-01  1.0385825043285353e-01  1.0347540156297494e-01  1.0309295051011982e-01  1.0271132144735187e-01  1.0233028446371265e-01  1.0195017934892396e-01  1.0157067101883838e-01  1.0119187823819556e-01  1.0081375268779165e-01  1.0043664497748962e-01  1.0006018077328738e-01  9.9684219076018085e-02  9.9309275269008818e-02  9.8935033458621258e-02  9.8561218092734826e-02  9.8188161064079946e-02  9.7815651376652032e-02  9.7444037924448959e-02  9.7072960719192455e-02  9.6702598125036024e-02  9.6332863121318335e-02  9.5963966289064270e-02  9.5595520249283555e-02  9.5227912282508168e-02  9.4860761225359580e-02  9.4494283426922288e-02  9.4128406582660293e-02  9.3763456445005208e-02  9.3399061936432215e-02  9.3035506686869690e-02  9.2672535349227786e-02  9.2309937120906072e-02  9.1948154393793377e-02  9.1586966145168827e-02  9.1226594616465900e-02  9.0866687599561888e-02  9.0507131333106103e-02  9.0148411131328793e-02  8.9790254595168290e-02  8.9432929821251103e-02  8.9076129832890191e-02  8.8719962437100897e-02  8.8364426718765002e-02  8.8009733143740471e-02  8.7655535355132236e-02  8.7301679085157818e-02  8.6948608587520584e-02  8.6596025503409002e-02  8.6244042810278865e-02  8.5892603528516895e-02  8.5541940388710089e-02  8.5191741215590186e-02  8.4842311759195196e-02  8.4493348230289991e-02  8.4144804350637578e-02  8.3797025603790820e-02  8.3449664603393467e-02  8.3102942251043935e-02  8.2756758260278368e-02  8.2410958967106832e-02  8.2065889922583984e-02  8.1721266645131491e-02  8.1377428074689104e-02  8.1034023887502249e-02  8.0691233695405401e-02  8.0348961979241018e-02  8.0007442209880264e-02  7.9666315146544014e-02  7.9325881914307617e-02  7.8985788890789443e-02  7.8646264999539542e-02  7.8307248075804900e-02  7.7968987028919801e-02  7.7631137795433694e-02  7.7293956784595552e-02  7.6957202061723795e-02  7.6620745071299318e-02  7.6284970494337884e-02  7.5949597859543583e-02  7.5614708407244963e-02  7.5280325440966328e-02  7.4946689977128902e-02  7.4613510192221219e-02  7.4280623446278851e-02  7.3948373588395025e-02  7.3616508396276481e-02  7.3284966984990818e-02  7.2954020475342038e-02  7.2623478255421689e-02  7.2293645450545105e-02  7.1964194732415887e-02  7.1635212469722043e-02  7.1306592131479107e-02  7.0978628394895646e-02  7.0651039039319519e-02  7.0323909412205288e-02  6.9997422534228471e-02  6.9671238441141883e-02  6.9345592141893883e-02  6.9020408281296949e-02  6.8695550651864376e-02  6.8371298435290384e-02  6.8047384907376940e-02  6.7724104709372762e-02  6.7401128499986154e-02  6.7078663906690358e-02  6.6756526100578917e-02  6.6434891944542204e-02  6.6113629395936471e-02  6.5792993756988771e-02  6.5472670306454178e-02  6.5152791953250327e-02  6.4833227381629818e-02  6.4513935715391310e-02  6.4195222952859121e-02  6.3876796925190632e-02  6.3558837812730848e-02  6.3241294598925246e-02  6.2924302693440709e-02  6.2607571504742096e-02  6.2291313735754410e-02  6.1975280260842563e-02  6.1659799426562398e-02  6.1344549913194914e-02  6.1029709302078974e-02  6.0715206340232017e-02  6.0401269019115196e-02  6.0087573129398310e-02  5.9774127232612072e-02  5.9461249369675770e-02  5.9148621747580447e-02  5.8836237762928255e-02  5.8524415426536351e-02  5.8212886541161593e-02  5.7901852003652242e-02  5.7591076441560800e-02  5.7280593911889374e-02  5.6970580401478496e-02  5.6660722431378485e-02  5.6351147092281631e-02  5.6041850683865184e-02  5.5733072826334669e-02  5.5424522525478567e-02  5.5116474400965780e-02  5.4808643780179835e-02  5.4501199551442878e-02  5.4194078119617253e-02  5.3887423168945132e-02  5.3580973528841523e-02  5.3274760987913186e-02  5.2969007284599093e-02  5.2663407166619408e-02  5.2358055518859657e-02  5.2052965209501680e-02  5.1748324658492870e-02  5.1443866494910735e-02  5.1139826970613769e-02  5.0835945478528981e-02  5.0532381667877525e-02  5.0229091918217