<?xml version="1.0"?>
<VTKFile type="UnstructuredGrid"  version="0.1"  >
<UnstructuredGrid>
<Piece  NumberOfPoints="4985" NumberOfCells="7768">
<Points>
<DataArray  type="Float64"  NumberOfComponents="3"  format="ascii">0 0.01 0  0 0 0  0.01 0 0  0.02 0 0  0.03 0 0  0.04 0 0  0.05 0 0  0.06 0 0  0.07000000000000001 0 0  0.08 0 0  0.09 0 0  0.1 0 0  0.11 0 0  0.12 0 0  0.13 0 0  0.14 0 0  0.15 0 0  0.16 0 0  0.17 0 0  0.18 0 0  0.19 0 0  0.2 0 0  0.21 0 0  0.22 0 0  0.23 0 0  0.24 0 0  0.25 0 0  0.26 0 0  0.27 0 0  0.28 0 0  0.29 0 0  0.3 0 0  0.31 0 0  0.32 0 0  0.33 0 0  0.34 0 0  0.35 0 0  0.36 0 0  0.37 0 0  0.38 0 0  0.39 0 0  0.4 0 0  0.41 0 0  0.42 0 0  0.43 0 0  0.44 0 0  0.45 0 0  0.46 0 0  0.47 0 0  0.48 0 0  0.49 0 0  0.5 0 0  0.51 0 0  0.52 0 0  0.53 0 0  0.54 0 0  0.55 0 0  0.5600000000000001 0 0  0.57 0 0  0.58 0 0  0.59 0 0  0.6 0 0  0.61 0 0  0.62 0 0  0.63 0 0  0.64 0 0  0.65 0 0  0.66 0 0  0.67 0 0  0.68 0 0  0.6899999999999999 0 0  0.7 0 0  0.71 0 0  0.72 0 0  0.73 0 0  0.74 0 0  0.75 0 0  0.76 0 0  0.77 0 0  0.78 0 0  0.79 0 0  0.8 0 0  0.8100000000000001 0 0  0.82 0 0  0.83 0 0  0.84 0 0  0.85 0 0  0.86 0 0  0.87 0 0  0.88 0 0  0.89 0 0  0.9 0 0  0.91 0 0  0.92 0 0  0.93 0 0  0.9399999999999999 0 0  0.95 0 0  0.96 0 0  0.97 0 0  0.98 0 0  0.99 0 0  1 0 0  1.01 0 0  1.02 0 0  1.03 0 0  1.04 0 0  1.05 0 0  1.06 0 0  1.07 0 0  1.08 0 0  1.09 0 0  1.1 0 0  1.11 0 0  1.12 0 0  1.13 0 0  1.14 0 0  1.15 0 0  1.16 0 0  1.17 0 0  1.18 0 0  1.19 0 0  1.2 0 0  1.21 0 0  1.22 0 0  1.23 0 0  1.24 0 0  1.25 0 0  1.26 0 0  1.27 0 0  1.28 0 0  1.29 0 0  1.3 0 0  1.31 0 0  1.32 0 0  1.33 0 0  1.34 0 0  1.35 0 0  1.36 0 0  1.37 0 0  1.38 0 0  1.39 0 0  1.4 0 0  1.41 0 0  1.42 0 0  1.43 0 0  1.44 0 0  1.45 0 0  1.46 0 0  1.47 0 0  1.48 0 0  1.49 0 0  1.5 0 0  1.51 0 0  1.52 0 0  1.53 0 0  1.54 0 0  1.55 0 0  1.56 0 0  1.57 0 0  1.58 0 0  1.59 0 0  1.6 0 0  1.61 0 0  1.62 0 0  1.63 0 0  1.64 0 0  1.65 0 0  1.66 0 0  1.67 0 0  1.68 0 0  1.69 0 0  1.7 0 0  1.71 0 0  1.72 0 0  1.73 0 0  1.74 0 0  1.75 0 0  1.76 0 0  1.77 0 0  1.78 0 0  1.79 0 0  1.8 0 0  1.81 0 0  1.82 0 0  1.83 0 0  1.84 0 0  1.85 0 0  1.86 0 0  1.87 0 0  1.88 0 0  1.89 0 0  1.9 0 0  1.91 0 0  1.92 0 0  1.93 0 0  1.94 0 0  1.95 0 0  1.96 0 0  1.97 0 0  1.98 0 0  1.99 0 0  2 0 0  2.01 0 0  2.02 0 0  2.03 0 0  2.04 0 0  2.05 0 0  2.06 0 0  2.07 0 0  2.08 0 0  2.09 0 0  2.1 0 0  2.11 0 0  2.12 0 0  2.13 0 0  2.14 0 0  2.15 0 0  2.16 0 0  2.17 0 0  2.18 0 0  2.19 0 0  2.2 0 0  2.21 0 0  2.22 0 0  2.23 0 0  2.24 0 0  2.25 0 0  2.26 0 0  2.27 0 0  2.28 0 0  2.29 0 0  2.3 0 0  2.31 0 0  2.32 0 0  2.33 0 0  2.34 0 0  2.35 0 0  2.36 0 0  2.37 0 0  2.38 0 0  2.39 0 0  2.4 0 0  2.41 0 0  2.42 0 0  2.43 0 0  2.44 0 0  2.45 0 0  2.46 0 0  2.47 0 0  2.48 0 0  2.49 0 0  2.5 0 0  2.51 0 0  2.52 0 0  2.53 0 0  2.54 0 0  2.55 0 0  2.56 0 0  2.57 0 0  2.58 0 0  2.59 0 0  2.6 0 0  2.61 0 0  2.62 0 0  2.63 0 0  2.64 0 0  2.65 0 0  2.66 0 0  2.67 0 0  2.68 0 0  2.69 0 0  2.7 0 0  2.71 0 0  2.72 0 0  2.73 0 0  2.74 0 0  2.75 0 0  2.76 0 0  2.77 0 0  2.78 0 0  2.79 0 0  2.8 0 0  2.81 0 0  2.82 0 0  2.83 0 0  2.84 0 0  2.85 0 0  2.86 0 0  2.87 0 0  2.88 0 0  2.89 0 0  2.9 0 0  2.91 0 0  2.92 0 0  2.93 0 0  2.94 0 0  2.95 0 0  2.96 0 0  2.97 0 0  2.98 0 0  2.99 0 0  3 0 0  3.01 0 0  3.02 0 0  3.03 0 0  3.04 0 0  3.05 0 0  3.06 0 0  3.07 0 0  3.08 0 0  3.09 0 0  3.1 0 0  3.11 0 0  3.12 0 0  3.13 0 0  3.14 0 0  3.15 0 0  3.16 0 0  3.17 0 0  3.18 0 0  3.19 0 0  3.2 0 0  3.21 0 0  3.22 0 0  3.23 0 0  3.24 0 0  3.25 0 0  3.26 0 0  3.27 0 0  3.28 0 0  3.29 0 0  3.3 0 0  3.31 0 0  3.32 0 0  3.33 0 0  3.34 0 0  3.35 0 0  3.36 0 0  3.37 0 0  3.38 0 0  3.39 0 0  3.4 0 0  3.41 0 0  3.42 0 0  3.43 0 0  3.44 0 0  3.45 0 0  3.46 0 0  3.47 0 0  3.48 0 0  3.49 0 0  3.5 0 0  3.51 0 0  3.52 0 0  3.53 0 0  3.54 0 0  3.55 0 0  3.56 0 0  3.57 0 0  3.58 0 0  3.59 0 0  3.6 0 0  3.61 0 0  3.62 0 0  3.63 0 0  3.64 0 0  3.65 0 0  3.66 0 0  3.67 0 0  3.68 0 0  3.69 0 0  3.7 0 0  3.71 0 0  3.72 0 0  3.73 0 0  3.74 0 0  3.75 0 0  3.76 0 0  3.77 0 0  3.78 0 0  3.79 0 0  3.8 0 0  3.81 0 0  3.82 0 0  3.83 0 0  3.84 0 0  3.85 0 0  3.86 0 0  3.87 0 0  3.88 0 0  3.89 0 0  3.9 0 0  3.91 0 0  3.92 0 0  3.93 0 0  3.94 0 0  3.95 0 0  3.96 0 0  3.97 0 0  3.98 0 0  3.99 0 0  4 0 0  4.01 0 0  4.02 0 0  4.03 0 0  4.04 0 0  4.05 0 0  4.06 0 0  4.07 0 0  4.08 0 0  4.09 0 0  4.1 0 0  4.11 0 0  4.12 0 0  4.13 0 0  4.14 0 0  4.15 0 0  4.16 0 0  4.17 0 0  4.18 0 0  4.19 0 0  4.2 0 0  4.21 0 0  4.22 0 0  4.23 0 0  4.24 0 0  4.25 0 0  4.26 0 0  4.27 0 0  4.28 0 0  4.29 0 0  4.3 0 0  4.31 0 0  4.32 0 0  4.33 0 0  4.34 0 0  4.35 0 0  4.36 0 0  4.37 0 0  4.38 0 0  4.39 0 0  4.4 0 0  4.41 0 0  4.42 0 0  4.43 0 0  4.44 0 0  4.45 0 0  4.46 0 0  4.47 0 0  4.48 0 0  4.49 0 0  4.5 0 0  4.51 0 0  4.52 0 0  4.53 0 0  4.54 0 0  4.55 0 0  4.56 0 0  4.57 0 0  4.58 0 0  4.59 0 0  4.6 0 0  4.61 0 0  4.62 0 0  4.63 0 0  4.64 0 0  4.65 0 0  4.66 0 0  4.67 0 0  4.68 0 0  4.69 0 0  4.7 0 0  4.71 0 0  4.72 0 0  4.73 0 0  4.74 0 0  4.75 0 0  4.76 -0.03139525976465602 0  4.77 -0.0626666167821508 0  4.78 -0.09369065729286308 0  4.79 -0.1243449435824275 0  4.8 -0.1545084971874732 0  4.81 -0.1840622763423378 0  4.82 -0.2128896457825371 0  4.83 -0.2408768370508579 0  4.84 -0.2679133974894979 0  4.85 -0.2938926261462357 0  4.86 -0.3187119948743456 0  4.87 -0.3422735529643445 0  4.88 -0.3644843137107056 0  4.89 -0.385256621387894 0  4.9 -0.4045084971874743 0  4.91 -0.4221639627510078 0  4.92 -0.4381533400219317 0  4.93 -0.4524135262330094 0  4.94 -0.4648882429441261 0  4.95 -0.4755282581475769 0  4.96 -0.4842915805643155 0  4.97 -0.4911436253643442 0  4.98 -0.4960573506572391 0  4.99 -0.4990133642141358 0  5 -0.5 0  5.01 -0.4990133642141358 0  5.02 -0.4960573506572391 0  5.03 -0.4911436253643442 0  5.04 -0.4842915805643155 0  5.05 -0.475528258147577 0  5.06 -0.4648882429441262 0  5.07 -0.4524135262330093 0  5.08 -0.4381533400219317 0  5.09 -0.4221639627510078 0  5.1 -0.4045084971874744 0  5.11 -0.3852566213878941 0  5.12 -0.3644843137107056 0  5.13 -0.3422735529643446 0  5.14 -0.3187119948743456 0  5.15 -0.2938926261462357 0  5.16 -0.2679133974894979 0  5.17 -0.2408768370508578 0  5.18 -0.2128896457825372 0  5.19 -0.1840622763423378 0  5.2 -0.1545084971874731 0  5.21 -0.1243449435824276 0  5.22 -0.09369065729286316 0  5.23 -0.06266661678215095 0  5.24 -0.03139525976465612 0  5.25 -6.123233995736766e-17 0  5.26 0 0  5.27 0 0  5.28 0 0  5.29 0 0  5.3 0 0  5.31 0 0  5.32 0 0  5.33 0 0  5.34 0 0  5.35 0 0  5.36 0 0  5.37 0 0  5.38 0 0  5.39 0 0  5.4 0 0  5.41 0 0  5.42 0 0  5.43 0 0  5.44 0 0  5.45 0 0  5.46 0 0  5.47 0 0  5.48 0 0  5.49 0 0  5.5 0 0  5.51 0 0  5.52 0 0  5.53 0 0  5.54 0 0  5.55 0 0  5.56 0 0  5.57 0 0  5.58 0 0  5.59 0 0  5.6 0 0  5.61 0 0  5.62 0 0  5.63 0 0  5.64 0 0  5.65 0 0  5.66 0 0  5.67 0 0  5.68 0 0  5.69 0 0  5.7 0 0  5.71 0 0  5.72 0 0  5.73 0 0  5.74 0 0  5.75 0 0  5.76 0 0  5.77 0 0  5.78 0 0  5.79 0 0  5.8 0 0  5.81 0 0  5.82 0 0  5.83 0 0  5.84 0 0  5.85 0 0  5.86 0 0  5.87 0 0  5.88 0 0  5.89 0 0  5.9 0 0  5.91 0 0  5.92 0 0  5.93 0 0  5.94 0 0  5.95 0 0  5.96 0 0  5.97 0 0  5.98 0 0  5.99 0 0  6 0 0  6.01 0 0  6.02 0 0  6.03 0 0  6.04 0 0  6.05 0 0  6.06 0 0  6.07 0 0  6.08 0 0  6.09 0 0  6.1 0 0  6.11 0 0  6.12 0 0  6.13 0 0  6.14 0 0  6.15 0 0  6.16 0 0  6.17 0 0  6.18 0 0  6.19 0 0  6.2 0 0  6.21 0 0  6.22 0 0  6.23 0 0  6.24 0 0  6.25 0 0  6.26 0 0  6.27 0 0  6.28 0 0  6.29 0 0  6.3 0 0  6.31 0 0  6.32 0 0  6.33 0 0  6.34 0 0  6.35 0 0  6.36 0 0  6.37 0 0  6.38 0 0  6.39 0 0  6.4 0 0  6.41 0 0  6.42 0 0  6.43 0 0  6.44 0 0  6.45 0 0  6.46 0 0  6.47 0 0  6.48 0 0  6.49 0 0  6.5 0 0  6.51 0 0  6.52 0 0  6.53 0 0  6.54 0 0  6.55 0 0  6.56 0 0  6.57 0 0  6.58 0 0  6.59 0 0  6.6 0 0  6.61 0 0  6.62 0 0  6.63 0 0  6.64 0 0  6.65 0 0  6.66 0 0  6.67 0 0  6.68 0 0  6.69 0 0  6.7 0 0  6.71 0 0  6.72 0 0  6.73 0 0  6.74 0 0  6.75 0 0  6.76 0 0  6.77 0 0  6.78 0 0  6.79 0 0  6.8 0 0  6.81 0 0  6.82 0 0  6.83 0 0  6.84 0 0  6.85 0 0  6.86 0 0  6.87 0 0  6.88 0 0  6.89 0 0  6.9 0 0  6.91 0 0  6.92 0 0  6.93 0 0  6.94 0 0  6.95 0 0  6.96 0 0  6.97 0 0  6.98 0 0  6.99 0 0  7 0 0  7.01 0 0  7.02 0 0  7.03 0 0  7.04 0 0  7.05 0 0  7.06 0 0  7.07 0 0  7.08 0 0  7.09 0 0  7.1 0 0  7.11 0 0  7.12 0 0  7.13 0 0  7.14 0 0  7.15 0 0  7.16 0 0  7.17 0 0  7.18 0 0  7.19 0 0  7.2 0 0  7.21 0 0  7.22 0 0  7.23 0 0  7.24 0 0  7.25 0 0  7.26 0 0  7.27 0 0  7.28 0 0  7.29 0 0  7.3 0 0  7.31 0 0  7.32 0 0  7.33 0 0  7.34 0 0  7.35 0 0  7.36 0 0  7.37 0 0  7.38 0 0  7.39 0 0  7.4 0 0  7.41 0 0  7.42 0 0  7.43 0 0  7.44 0 0  7.45 0 0  7.46 0 0  7.47 0 0  7.48 0 0  7.49 0 0  7.5 0 0  7.51 0 0  7.52 0 0  7.53 0 0  7.54 0 0  7.55 0 0  7.56 0 0  7.57 0 0  7.58 0 0  7.59 0 0  7.6 0 0  7.61 0 0  7.62 0 0  7.63 0 0  7.64 0 0  7.65 0 0  7.66 0 0  7.67 0 0  7.68 0 0  7.69 0 0  7.7 0 0  7.71 0 0  7.72 0 0  7.73 0 0  7.74 0 0  7.75 0 0  7.76 0 0  7.77 0 0  7.78 0 0  7.79 0 0  7.8 0 0  7.81 0 0  7.82 0 0  7.83 0 0  7.84 0 0  7.85 0 0  7.86 0 0  7.87 0 0  7.88 0 0  7.89 0 0  7.9 0 0  7.91 0 0  7.92 0 0  7.93 0 0  7.94 0 0  7.95 0 0  7.96 0 0  7.97 0 0  7.98 0 0  7.99 0 0  8 0 0  8.01 0 0  8.02 0 0  8.029999999999999 0 0  8.039999999999999 0 0  8.050000000000001 0 0  8.06 0 0  8.07 0 0  8.08 0 0  8.09 0 0  8.1 0 0  8.109999999999999 0 0  8.119999999999999 0 0  8.130000000000001 0 0  8.140000000000001 0 0  8.15 0 0  8.16 0 0  8.17 0 0  8.18 0 0  8.19 0 0  8.199999999999999 0 0  8.210000000000001 0 0  8.220000000000001 0 0  8.23 0 0  8.24 0 0  8.25 0 0  8.26 0 0  8.27 0 0  8.279999999999999 0 0  8.289999999999999 0 0  8.300000000000001 0 0  8.31 0 0  8.32 0 0  8.33 0 0  8.34 0 0  8.35 0 0  8.359999999999999 0 0  8.369999999999999 0 0  8.380000000000001 0 0  8.390000000000001 0 0  8.4 0 0  8.41 0 0  8.42 0 0  8.43 0 0  8.44 0 0  8.449999999999999 0 0  8.460000000000001 0 0  8.470000000000001 0 0  8.48 0 0  8.49 0 0  8.5 0 0  8.51 0 0  8.52 0 0  8.529999999999999 0 0  8.539999999999999 0 0  8.550000000000001 0 0  8.56 0 0  8.57 0 0  8.58 0 0  8.59 0 0  8.6 0 0  8.
[...]
<PointData  Scalars="f_88"> 
<DataArray  type="Float64"  Name="f_88"  format="ascii">1.0000000000000000e+00  1.0000000000000000e+00  9.7105552334268030e-01  9.4875670967799397e-01  9.2927725245560844e-01  9.1187843059720464e-01  8.9639845924662553e-01  8.8202471984319686e-01  8.6856378050067773e-01  8.5599186584122766e-01  8.4417932112841843e-01  8.3293936419338999e-01  8.2220269629204557e-01  8.1193981426435180e-01  8.0207134994058149e-01  7.9264387027521499e-01  7.8356067921732442e-01  7.7475381068346738e-01  7.6619195035531762e-01  7.5793808281460795e-01  7.4991126425077304e-01  7.4212421312354737e-01  7.3455747711134367e-01  7.2725543665557402e-01  7.2015549021407654e-01  7.1317129976789961e-01  7.0640491061084887e-01  6.9979343695835183e-01  6.9333554766863636e-01  6.8701213124272520e-01  6.8085859457931452e-01  6.7481679429194175e-01  6.6890076606374893e-01  6.6309700360787194e-01  6.5743909451232985e-01  6.5187209707217209e-01  6.4636442337914213e-01  6.4098914681301800e-01  6.3570505246998110e-01  6.3053587590986637e-01  6.2544399996949773e-01  6.2046860718057995e-01  6.1555828458595352e-01  6.1071825064110907e-01  6.0593395137131856e-01  6.0124135181739480e-01  5.9659532377095348e-01  5.9203144942243580e-01  5.8752272618742374e-01  5.8308609139735557e-01  5.7871689877610988e-01  5.7444228424399124e-01  5.7022363378438234e-01  5.6603725999305832e-01  5.6192028336584510e-01  5.5784767800245660e-01  5.5384575997918672e-01  5.4987879024647268e-01  5.4596241575107074e-01  5.4208215114571667e-01  5.3827409983094709e-01  5.3450003968406690e-01  5.3077676964275855e-01  5.2709160568952640e-01  5.2346625159710647e-01  5.1986957448330429e-01  5.1630302275809647e-01  5.1279302923232961e-01  5.0930444746945880e-01  5.0584786397856241e-01  5.0242437442176902e-01  4.9905373608053988e-01  4.9570615533167811e-01  4.9240667441531849e-01  4.8912681610896774e-01  4.8588264168253059e-01  4.8266840842434999e-01  4.7949672763538820e-01  4.7634606103498423e-01  4.7324487964257622e-01  4.7016273521140356e-01  4.6711338290472193e-01  4.6408387814843460e-01  4.6107286210673304e-01  4.5810179801632939e-01  4.5514304271204253e-01  4.5221809723219347e-01  4.4931831351426421e-01  4.4645707818334512e-01  4.4361453331392836e-01  4.4081463591858272e-01  4.3802956756988143e-01  4.3527221607347777e-01  4.3253059660959015e-01  4.2980416980712838e-01  4.2711173102919503e-01  4.2442795291739671e-01  4.2176763045235183e-01  4.1912677257874054e-01  4.1652331008907967e-01  4.1393324547429239e-01  4.1135257914570156e-01  4.0880036255808094e-01  4.0625959061197092e-01  4.0374873077875134e-01  4.0124626421756110e-01  3.9875962169390855e-01  3.9628923477870276e-01  3.9385177463330800e-01  3.9142449396368700e-01  3.8900643018109887e-01  3.8661884036993677e-01  3.8424520907764242e-01  3.8190140763357661e-01  3.7956733057865522e-01  3.7724384913919362e-01  3.7495027119015312e-01  3.7266451119682253e-01  3.7038852232415292e-01  3.6812840761527271e-01  3.6589418271489738e-01  3.6367185830989973e-01  3.6147659092625445e-01  3.5928556788157900e-01  3.5711911362469717e-01  3.5495500759359411e-01  3.5280771574596020e-01  3.5066983280612934e-01  3.4854288966617708e-01  3.4644093896462402e-01  3.4434672319979720e-01  3.4228093949648009e-01  3.4022250265815207e-01  3.3818403932563762e-01  3.3615654289237290e-01  3.3413748958522016e-01  3.3213785582585981e-01  3.3014721120567431e-01  3.2817955996279091e-01  3.2621611397403250e-01  3.2427124422454917e-01  3.2233300211017152e-01  3.2040764165405689e-01  3.1849398574969146e-01  3.1660269840969357e-01  3.1471788389046890e-01  3.1283915762908149e-01  3.1097752602958906e-01  3.0912321620294841e-01  3.0729209910582334e-01  3.0546603108133297e-01  3.0365346169618729e-01  3.0184804969575862e-01  3.0006275014093603e-01  2.9828224246722124e-01  2.9651554808810043e-01  2.9475357242848726e-01  2.9300019475050515e-01  2.9126653185660395e-01  2.8953737409493835e-01  2.8781947666179869e-01  2.8611419773457897e-01  2.8442813734478861e-01  2.8274717970454522e-01  2.8107269993295908e-01  2.7941542761003746e-01  2.7776193791765497e-01  2.7612747968767770e-01  2.7449537887275849e-01  2.7287549793255311e-01  2.7126419235944621e-01  2.6967200410618725e-01  2.6808208791536919e-01  2.6649818026033378e-01  2.6493305106363385e-01  2.6337251026865172e-01  2.6182268013705950e-01  2.6028131150100453e-01  2.5875791115044655e-01  2.5723835089782099e-01  2.5572271447058315e-01  2.5422222747203677e-01  2.5272877371338015e-01  2.5125183777088811e-01  2.4977663319567753e-01  2.4830539273462476e-01  2.4684979886652134e-01  2.4539714194105242e-01  2.4395866909539113e-01  2.4252212631897521e-01  2.4109589337760767e-01  2.3967881646726835e-01  2.3827839600421380e-01  2.3688008922500325e-01  2.3548599950249846e-01  2.3410684304205867e-01  2.3273079637640454e-01  2.3136665088520214e-01  2.3000604910780606e-01  2.2865170002057805e-01  2.2731329054298463e-01  2.2597843604092008e-01  2.2465310402487493e-01  2.2333548780804269e-01  2.2203164807953288e-01  2.2072838115352203e-01  2.1942806531317771e-01  2.1814194090020783e-01  2.1685893314756102e-01  2.1558891930936441e-01  2.1432236965212040e-01  2.1306372685977601e-01  2.1181362035002951e-01  2.1057537555277614e-01  2.0934072830211753e-01  2.0811917316134312e-01  2.0689910066781919e-01  2.0568906378975452e-01  2.0448157883149043e-01  2.0328014648051546e-01  2.0208496140396440e-01  2.0090205186496354e-01  1.9972330695359944e-01  1.9855836313380062e-01  1.9739487135820979e-01  1.9623433617314048e-01  1.9508554171899048e-01  1.9393869650471218e-01  1.9279778128113093e-01  1.9166343924855528e-01  1.9054274586595785e-01  1.8942464356716610e-01  1.8831027374886977e-01  1.8720964458264880e-01  1.8611371282593209e-01  1.8502163143531039e-01  1.8393937744979794e-01  1.8286134519038050e-01  1.8179516144766336e-01  1.8073063214423365e-01  1.7967325963962727e-01  1.7862123046095271e-01  1.7758092703929998e-01  1.7654210998668909e-01  1.7550590551663339e-01  1.7448042307225667e-01  1.7345691743165692e-01  1.7243979357931560e-01  1.7142653415546907e-01  1.7042466311488094e-01  1.6942471518803975e-01  1.6843543536566979e-01  1.6744766018361590e-01  1.6646670127154400e-01  1.6549133454336712e-01  1.6452590099510742e-01  1.6356062158497237e-01  1.6259732721388709e-01  1.6164436509474731e-01  1.6069352894684805e-01  1.5975224893301976e-01  1.5881344329570543e-01  1.5788060198487716e-01  1.5695430829648827e-01  1.5603788290826259e-01  1.5512368793891482e-01  1.5421293076475723e-01  1.5331163477433907e-01  1.5241167963712340e-01  1.5151664582933419e-01  1.5062711007674406e-01  1.4974787203700418e-01  1.4887101021822191e-01  1.4799648736404067e-01  1.4713082721996365e-01  1.4626731999512330e-01  1.4540752498635265e-01  1.4455696124446665e-01  1.4370871042271913e-01  1.4286443530428333e-01  1.4203055379247725e-01  1.4119897616252852e-01  1.4037139751897282e-01  1.3954882076319924e-01  1.3873475685640055e-01  1.3792228378327026e-01  1.3711503493018004e-01  1.3631611365913310e-01  1.3551709925154759e-01  1.3472426477326030e-01  1.3393325455692548e-01  1.3314730429829355e-01  1.3236654368509046e-01  1.3159434408788137e-01  1.3082310450512200e-01  1.3005370874617717e-01  1.2929216183027020e-01  1.2853196934318797e-01  1.2777646672666271e-01  1.2702379080012879e-01  1.2627951425289588e-01  1.2553660545265427e-01  1.2480155704264116e-01  1.2406756043779575e-01  1.2333856767771746e-01  1.2261367290261617e-01  1.2189610137717888e-01  1.2117858469258810e-01  1.2046249892268197e-01  1.1975402437241077e-01  1.1904706011928716e-01  1.1834712868544289e-01  1.1764896385090626e-01  1.1695516748392069e-01  1.1626617672128277e-01  1.1558446902601097e-01  1.1490436274788664e-01  1.1422677730003759e-01  1.1355616010814130e-01  1.1288646916285172e-01  1.1222031224438626e-01  1.1155818801688550e-01  1.1090333950037223e-01  1.1024955723143885e-01  1.0959747291633362e-01  1.0895208926394730e-01  1.0830837413825634e-01  1.0767125087743261e-01  1.0703523552173581e-01  1.0640280178001549e-01  1.0577439662382349e-01  1.0515248750274216e-01  1.0453187459687491e-01  1.0391336910039900e-01  1.0330075965180037e-01  1.0268929176470135e-01  1.0208452357663925e-01  1.0148029630450468e-01  1.0088027577566006e-01  1.0028310358906768e-01  9.9692474257606079e-02  9.9102164946604385e-02  9.8518078743799517e-02  9.7934139453611999e-02  9.7354069142479752e-02  9.6776488854021653e-02  9.6205727491188109e-02  9.5635963643500091e-02  9.5071944704131828e-02  9.4509398503240916e-02  9.3948523440010506e-02  9.3393270213660257e-02  9.2838990906260327e-02  9.2287338554509935e-02  9.1738673745349039e-02  9.1196258539473940e-02  9.0655348589256904e-02  9.0115803295801142e-02  8.9581413563915080e-02  8.9048121957144191e-02  8.8516639135145792e-02  8.7989425239245966e-02  8.7463691753475653e-02  8.6943574261753365e-02  8.6423904964061368e-02  8.5907379197308703e-02  8.5392228688006819e-02  8.4882312660575152e-02  8.4373224207896433e-02  8.3867343209006212e-02  8.3366845085123778e-02  8.2866505462645026e-02  8.2369947602629806e-02  8.1875506375407650e-02  8.1383312277647155e-02  8.0895953938533813e-02  8.0409426780485349e-02  7.9928130042888346e-02  7.9447151247828085e-02  7.8969229401250424e-02  7.8493271544052293e-02  7.8022523052477075e-02  7.7552155203326867e-02  7.7083273642391717e-02  7.6619780640518498e-02  7.6157180700311841e-02  7.5695662074303782e-02  7.5238799993988581e-02  7.4783170344558322e-02  7.4331529837939531e-02  7.3880945616001961e-02  7.3435513870905134e-02  7.2990550567871626e-02  7.2548592190569125e-02  7.2107487709778401e-02  7.1667819854629278e-02  7.1232062563226353e-02  7.0796370706970327e-02  7.0363027987782281e-02  6.9931326892806830e-02  6.9503175966333319e-02  6.9075700611094054e-02  6.8652929555694076e-02  6.8230765617982608e-02  6.7811352835440070e-02  6.7392858831195016e-02  6.6975875352765321e-02  6.6562510740011668e-02  6.6150078428661260e-02  6.5742213503934929e-02  6.5334669559543063e-02  6.4929330318610992e-02  6.4524949726478500e-02  6.4124252229152356e-02  6.3723373551354420e-02  6.3325285752374463e-02  6.2927506500117206e-02  6.2531471205036895e-02  6.2136670566304800e-02  6.1745477736061857e-02  6.1354395637406502e-02  6.0966695392797615e-02  6.0578993020881239e-02  6.0192563386826131e-02  5.9809509681644765e-02  5.9425997267552072e-02  5.9044674295905743e-02  5.8663751967767380e-02  5.8283930599118766e-02  5.7907448349894620e-02  5.7530682342359446e-02  5.7154240746710300e-02  5.6779194048791198e-02  5.6407138453890178e-02  5.6034868232665118e-02  5.5665210589281373e-02  5.5295243623343496e-02  5.4926222884896410e-02  5.4559925595541896e-02  5.4192716987315738e-02  5.3826517518195727e-02  5.3460686002466416e-02  5.3097193243980149e-02  5.2732539377124542e-02  5.2368539178326186e-02  5.2004610817909198e-02  5.1642755054856167e-02  5.1279205817256625e-02  5.0914761835797025e-02  5.0551530503582416e-02  5.0187187844215109e-02  4.9824216741533874e-02  4.9458782666814111e-02  4.9094257378922326e-02  4.8726837198677278e-02  4.8358479875727098e-02  4.7988241648934650e-02  4.7617783973657804e-02  4.7243323616028364e-02  4.6867563491148685e-02  4.6487457388273090e-02  4.6104728037193364e-02  4.5718504282713367e-02  4.5327315757810946e-02  4.4932557634641428e-02  4.4530078692726009e-02  4.4120626107949812e-02  4.3702327437010968e-02  4.3271473844973866e-02  4.2827394494464863e-02  4.2367470282191788e-02  4.1883851801082443e-02  4.1372159155690105e-02  4.0809932234623966e-02  4.0192197730060081e-02  3.9465185528549766e-02  3.8361822506440289e-02  3.4825142886903623e-02  3.2407145577099040e-02  3.0350724655406818e-02  2.8585851868535794e-02  2.7052041911697716e-02  2.5643412549646853e-02  2.4409374402027725e-02  2.3304802284368695e-02  2.2320457442676717e-02  2.1439091720530660e-02  2.0674968191445795e-02  1.9991574153905921e-02  1.9375733094452844e-02  1.8846195188106485e-02  1.8385847710579092e-02  1.8001990728725832e-02  1.7669922094400561e-02  1.7401258097451171e-02  1.7173709200608990e-02  1.6995143598726090e-02  1.6859937567362451e-02  1.6763359325690497e-02  1.6697482799608358e-02  1.6660339783158389e-02  1.6645716885479889e-02  1.6656593663881412e-02  1.6689580237882213e-02  1.6750146092250569e-02  1.6839301963110016e-02  1.6965403696052626e-02  1.7132620527998767e-02  1.7344942940032131e-02  1.7593823593631153e-02  1.7899135142267042e-02  1.8247733619164798e-02  1.8660837452214203e-02  1.9128690579762173e-02  1.9655323458471867e-02  2.0226666822925385e-02  2.0869541404890949e-02  2.1558458290991594e-02  2.2308288620955616e-02  2.3100904580020280e-02  2.3927614620752883e-02  2.4815439274824564e-02  2.5738377063239337e-02  2.6687775694607431e-02  2.7692235735890223e-02  2.8739915040637037e-02  2.9881685342244023e-02  2.9858572661184288e-02  2.9780293814079116e-02  2.9684337207257917e-02  2.9577754505160467e-02  2.9461301744167140e-02  2.9340112784302739e-02  2.9212946095696506e-02  2.9082740688224622e-02  2.8950769237031472e-02  2.8815890651169865e-02  2.8679920380961947e-02  2.8541714818521646e-02  2.8402584692428640e-02  2.8262891961340127e-02  2.8123226322721583e-02  2.7982213099748392e-02  2.7840709290183667e-02  2.7699416155992022e-02  2.7557120285291972e-02  2.7414868831765242e-02  2.7272177250731271e-02  2.7130232083333650e-02  2.6987611376023641e-02  2.6845278560990119e-02  2.6702785205398875e-02  2.6561169111155747e-02  2.6419167494618208e-02  2.6277593229871332e-02  2.6135760526172433e-02  2.5994221008986500e-02  2.5853618035289190e-02  2.5712703875153672e-02  2.5572191967832354e-02  2.5432216557509647e-02  2.5293349395788027e-02  2.5154426740963763e-02  2.5015817121570295e-02  2.4878326543439713e-02  2.4740673793790847e-02  2.4603556328679149e-02  2.4466802016473149e-02  2.4331197500744327e-02  2.4195507953868291e-02  2.4060456861258680e-02  2.3926557850972158e-02  2.3792392621481827e-02  2.3658937948216902e-02  2.3525947710497871e-02  2.3394375496150911e-02  2.3262879223776126e-02  2.3132576713815932e-02  2.3002477307314473e-02  2.2872612148500664e-02  2.2743820821712817e-02  2.2615438719849279e-02  2.2488270313937613e-02  2.2361046360423211e-02  2.2234022755828722e-02  2.2108152679825462e-02  2.1982349631575974e-02  2.1857603538019962e-02  2.1732864757944979e-02  2.1608862781335891e-02  2.1485539893957108e-02  2.1363468062146510e-02  2.1241430683260388e-02  2.1119618779558313e-02  2.0998949385330187e-02  2.0878393874477017e-02  2.0758479419413188e-02  2.0638928231320033e-02  2.0520657129635512e-02  2.0402575474902686e-02  2.0285686515884731e-02  2.0168934442457778e-02  2.0052936828026321e-02  1.9937560013256028e-02  1.9823346201585913e-02  1.9709139699271572e-02  1.9595114302680038e-02  1.9482229086208079e-02  1.9369580908224972e-02  1.9258072886738094e-02  1.9146744780392064e-02  1.9036044851612737e-02  1.8926014734281363e-02  1.8816982893103747e-02  1.8708210718779369e-02  1.8600543204993960e-02  1.8492957725028847e-02  1.8386206773115969e-02  1.8279628960500775e-02  1.8173540246589751e-02  1.8067969320791889e-02  1.7963498223020128e-02  1.7859227104438866e-02  1.7755954298074524e-02  1.7652887654856574e-02  1.7550284539917946e-02  1.7448777542182683e-02  1.7347361990290418e-02  1.7246691903948053e-02  1.7146381459730405e-02  1.7046534112502957e-02  1.6947746614277712e-02  1.6849111824524678e-02  1.6751078234913265e-02  1.6653522879893860e-02  1.6556983356875145e-02  1.6460592309790020e-02  1.6364807010084966e-02  1.6270004089450389e-02  1.6175182983709104e-02  1.6080988473406815e-02  1.5987300788775086e-02  1.5894722202906830e-02  1.5802342992667660e-02  1.5710611500385635e-02  1.5619118697893833e-02  1.5527997752736285e-02  1.5437783412089214e-02  1.5347646199425720e-02  1.5257932952223149e-02  1.5168719957390983e-02  1.5080520667739248e-02  1.4992539813971703e-02  1.4904755810135534e-02  1.4817751963679468e-02  1.4731027973753046e-02  1.4645200193236488e-02  1.4559504996859972e-02  1.4474280232553389e-02  1.4389451613877276e-02  1.4305604784395957e-02  1.4221945825793588e-02  1.4138513170792530e-02  1.4055968309447612e-02  1.3973723857981433e-02  1.3892327132971286e-02  1.3811079208423983e-02  1.3730203748834238e-02  1.3650151638876468e-02  1.3570121425728752e-02  1.3490596370179374e-02  1.3411402322006208e-02  1.3333064621704948e-02  1.3254794621228479e-02  1.3177072936859675e-02  1.3099614768113985e-02  1.3023016489937807e-02  1.2946473641003476e-02  1.2870206095068859e-02  1.2794865761390073e-02  1.2719703692490430e-02  1.2644795049868285e-02  1.2570781656162032e-02  1.2497039198937540e-02  1.2423514262999981e-02  1.2350614218569230e-02  1.2277964073750655e-02  1.2206079499512476e-02  1.2134273184855935e-02  1.2062931843550959e-02  1.1991936409005203e-02  1.1921723390426121e-02  1.1851601701914497e-02  1.1781652143148273e-02  1.1712421086863808e-02  1.1643318136361278e-02  1.1574641247367934e-02  1.1506220415190321e-02  1.1438561871115364e-02  1.1371026403680054e-02  1.1304203989910647e-02  1.1237475668950411e-02  1.1171200429403840e-02  1.1105295894893103e-02  1.1040054830855420e-02  1.0974816398801100e-02  1.0909705931478119e-02  1.0845283253026897e-02  1.0780993596797578e-02  1.0717336978534452e-02  1.0653834369785753e-02  1.0590719468955965e-02  1.0528030576222638e-02  1.0465990055858109e-02  1.0404080833417220e-02  1.0342392206614186e-02  1.0281321395038371e-02  1.0220318171955109e-02  1.0159624380150830e-02  1.0099277013394459e-02  1.0039592640761708e-02  9.9800335327097003e-03  9.9206137196877348e-03  9.8617657786255024e-03  9.8030335710948355e-03  9.7445088980268862e-03  9.6865062863795287e-03  9.6287045313464582e-03  9.5715710338357719e-03  9.5145223175992829e-03  9.4580557673168923e-03  9.4017246264862294e-03  9.3455288068391967e-03  9.2898659152743802e-03  9.2344380232229680e-03  9.1795876594235847e-03  9.1247409631645682e-03  9.0704705483042342e-03  9.0162157782268885e-03  8.9623752208448579e-03  8.9086825486631299e-03  8.8552729711724662e-03  8.8022285629787526e-03  8.7497498632579020e-03  8.6973316096344046e-03  8.6450372990561301e-03  8.5932492593094236e-03  8.5415300212020005e-03  8.4900689938616231e-03  8.4388363331535394e-03  8.3881676006349222e-03  8.3376012903093339e-03  8.2875863186596798e-03  8.2376768747875161e-03  8.1879765604819330e-03  8.1385673045136029e-03  8.0896385036365072e-03  8.0407823541601992e-03  7.9920940303728327e-03  7.9436060659480341e-03  7.8955887949641295e-03  7.8476585405335333e-03  7.8002155649799015e-03  7.7528513175279092e-03  7.7057456614270875e-03  7.6589407556760386e-03  7.6126073201433541e-03  7.5663584708511398e-03  7.5202656230477912e-03  7.4746192516822029e-03  7.4290061631311407e-03  7.3836221858992902e-03  7.3384745319419742e-03  7.2938143845228624e-03  7.2492374822825867e-03  7.2047581045430777e-03  7.1606939982379976e-03  7.1167025160224070e-03  7.0728755618481671e-03  7.0294768468276330e-03  6.9861497751050796e-03  6.9430348939326586e-03  6.9004216012887925e-03  6.8578894424325835e-03  6.8155402777228353e-03  6.7734149460616415e-03  6.7316903880423841e-03  6.6900109709245375e-03  6.6485760273465797e-03  6.6075377977302535e-03  6.5664612487178501e-03  6.5256896465896138e-03  6.4849807097813747e-03  6.4444953437388045e-03  6.4042583137034551e-03  6.3644365689611345e-03  6.3246386042477634e-03  6.2849183823423648e-03  6.2455717690750876e-03  6.2062633608566441e-03  6.1671642481382861e-03  6.1281817367079246e-03  6.0896020633708289e-03  6.0510622500199833e-03  6.0128969495501028e-03  5.9747542162086210e-03  5.9368373548012825e-03  5.8991039558852973e-03  5.8617308389777266e-03  5.8243398357619635e-03  5.7869926028536319e-03  5.7499949855898376e-03  5.7130510385977086e-03  5.6764575365398674e-03  5.6398993551936005e-03  5.6035154470238796e-03  5.5673373564388015e-03  5.5314953703366676e-03  5.4956902050490967e-03  5.4599891143596903e-03  5.4246037836287444e-03  5.3892138998278428e-03  5.3539719126377283e-03  5.3188829705441932e-03  5.2841395938478591e-03  5.2494272840201972e-03  5.2147716142534320e-03  5.1804073709862614e-03  5.1460673299101919e-03  5.1118333585731231e