<?xml version="1.0"?>
<VTKFile type="UnstructuredGrid"  version="0.1"  >
<UnstructuredGrid>
<Piece  NumberOfPoints="4985" NumberOfCells="7768">
<Points>
<DataArray  type="Float64"  NumberOfComponents="3"  format="ascii">0 0.01 0  0 0 0  0.01 0 0  0.02 0 0  0.03 0 0  0.04 0 0  0.05 0 0  0.06 0 0  0.07000000000000001 0 0  0.08 0 0  0.09 0 0  0.1 0 0  0.11 0 0  0.12 0 0  0.13 0 0  0.14 0 0  0.15 0 0  0.16 0 0  0.17 0 0  0.18 0 0  0.19 0 0  0.2 0 0  0.21 0 0  0.22 0 0  0.23 0 0  0.24 0 0  0.25 0 0  0.26 0 0  0.27 0 0  0.28 0 0  0.29 0 0  0.3 0 0  0.31 0 0  0.32 0 0  0.33 0 0  0.34 0 0  0.35 0 0  0.36 0 0  0.37 0 0  0.38 0 0  0.39 0 0  0.4 0 0  0.41 0 0  0.42 0 0  0.43 0 0  0.44 0 0  0.45 0 0  0.46 0 0  0.47 0 0  0.48 0 0  0.49 0 0  0.5 0 0  0.51 0 0  0.52 0 0  0.53 0 0  0.54 0 0  0.55 0 0  0.5600000000000001 0 0  0.57 0 0  0.58 0 0  0.59 0 0  0.6 0 0  0.61 0 0  0.62 0 0  0.63 0 0  0.64 0 0  0.65 0 0  0.66 0 0  0.67 0 0  0.68 0 0  0.6899999999999999 0 0  0.7 0 0  0.71 0 0  0.72 0 0  0.73 0 0  0.74 0 0  0.75 0 0  0.76 0 0  0.77 0 0  0.78 0 0  0.79 0 0  0.8 0 0  0.8100000000000001 0 0  0.82 0 0  0.83 0 0  0.84 0 0  0.85 0 0  0.86 0 0  0.87 0 0  0.88 0 0  0.89 0 0  0.9 0 0  0.91 0 0  0.92 0 0  0.93 0 0  0.9399999999999999 0 0  0.95 0 0  0.96 0 0  0.97 0 0  0.98 0 0  0.99 0 0  1 0 0  1.01 0 0  1.02 0 0  1.03 0 0  1.04 0 0  1.05 0 0  1.06 0 0  1.07 0 0  1.08 0 0  1.09 0 0  1.1 0 0  1.11 0 0  1.12 0 0  1.13 0 0  1.14 0 0  1.15 0 0  1.16 0 0  1.17 0 0  1.18 0 0  1.19 0 0  1.2 0 0  1.21 0 0  1.22 0 0  1.23 0 0  1.24 0 0  1.25 0 0  1.26 0 0  1.27 0 0  1.28 0 0  1.29 0 0  1.3 0 0  1.31 0 0  1.32 0 0  1.33 0 0  1.34 0 0  1.35 0 0  1.36 0 0  1.37 0 0  1.38 0 0  1.39 0 0  1.4 0 0  1.41 0 0  1.42 0 0  1.43 0 0  1.44 0 0  1.45 0 0  1.46 0 0  1.47 0 0  1.48 0 0  1.49 0 0  1.5 0 0  1.51 0 0  1.52 0 0  1.53 0 0  1.54 0 0  1.55 0 0  1.56 0 0  1.57 0 0  1.58 0 0  1.59 0 0  1.6 0 0  1.61 0 0  1.62 0 0  1.63 0 0  1.64 0 0  1.65 0 0  1.66 0 0  1.67 0 0  1.68 0 0  1.69 0 0  1.7 0 0  1.71 0 0  1.72 0 0  1.73 0 0  1.74 0 0  1.75 0 0  1.76 0 0  1.77 0 0  1.78 0 0  1.79 0 0  1.8 0 0  1.81 0 0  1.82 0 0  1.83 0 0  1.84 0 0  1.85 0 0  1.86 0 0  1.87 0 0  1.88 0 0  1.89 0 0  1.9 0 0  1.91 0 0  1.92 0 0  1.93 0 0  1.94 0 0  1.95 0 0  1.96 0 0  1.97 0 0  1.98 0 0  1.99 0 0  2 0 0  2.01 0 0  2.02 0 0  2.03 0 0  2.04 0 0  2.05 0 0  2.06 0 0  2.07 0 0  2.08 0 0  2.09 0 0  2.1 0 0  2.11 0 0  2.12 0 0  2.13 0 0  2.14 0 0  2.15 0 0  2.16 0 0  2.17 0 0  2.18 0 0  2.19 0 0  2.2 0 0  2.21 0 0  2.22 0 0  2.23 0 0  2.24 0 0  2.25 0 0  2.26 0 0  2.27 0 0  2.28 0 0  2.29 0 0  2.3 0 0  2.31 0 0  2.32 0 0  2.33 0 0  2.34 0 0  2.35 0 0  2.36 0 0  2.37 0 0  2.38 0 0  2.39 0 0  2.4 0 0  2.41 0 0  2.42 0 0  2.43 0 0  2.44 0 0  2.45 0 0  2.46 0 0  2.47 0 0  2.48 0 0  2.49 0 0  2.5 0 0  2.51 0 0  2.52 0 0  2.53 0 0  2.54 0 0  2.55 0 0  2.56 0 0  2.57 0 0  2.58 0 0  2.59 0 0  2.6 0 0  2.61 0 0  2.62 0 0  2.63 0 0  2.64 0 0  2.65 0 0  2.66 0 0  2.67 0 0  2.68 0 0  2.69 0 0  2.7 0 0  2.71 0 0  2.72 0 0  2.73 0 0  2.74 0 0  2.75 0 0  2.76 0 0  2.77 0 0  2.78 0 0  2.79 0 0  2.8 0 0  2.81 0 0  2.82 0 0  2.83 0 0  2.84 0 0  2.85 0 0  2.86 0 0  2.87 0 0  2.88 0 0  2.89 0 0  2.9 0 0  2.91 0 0  2.92 0 0  2.93 0 0  2.94 0 0  2.95 0 0  2.96 0 0  2.97 0 0  2.98 0 0  2.99 0 0  3 0 0  3.01 0 0  3.02 0 0  3.03 0 0  3.04 0 0  3.05 0 0  3.06 0 0  3.07 0 0  3.08 0 0  3.09 0 0  3.1 0 0  3.11 0 0  3.12 0 0  3.13 0 0  3.14 0 0  3.15 0 0  3.16 0 0  3.17 0 0  3.18 0 0  3.19 0 0  3.2 0 0  3.21 0 0  3.22 0 0  3.23 0 0  3.24 0 0  3.25 0 0  3.26 0 0  3.27 0 0  3.28 0 0  3.29 0 0  3.3 0 0  3.31 0 0  3.32 0 0  3.33 0 0  3.34 0 0  3.35 0 0  3.36 0 0  3.37 0 0  3.38 0 0  3.39 0 0  3.4 0 0  3.41 0 0  3.42 0 0  3.43 0 0  3.44 0 0  3.45 0 0  3.46 0 0  3.47 0 0  3.48 0 0  3.49 0 0  3.5 0 0  3.51 0 0  3.52 0 0  3.53 0 0  3.54 0 0  3.55 0 0  3.56 0 0  3.57 0 0  3.58 0 0  3.59 0 0  3.6 0 0  3.61 0 0  3.62 0 0  3.63 0 0  3.64 0 0  3.65 0 0  3.66 0 0  3.67 0 0  3.68 0 0  3.69 0 0  3.7 0 0  3.71 0 0  3.72 0 0  3.73 0 0  3.74 0 0  3.75 0 0  3.76 0 0  3.77 0 0  3.78 0 0  3.79 0 0  3.8 0 0  3.81 0 0  3.82 0 0  3.83 0 0  3.84 0 0  3.85 0 0  3.86 0 0  3.87 0 0  3.88 0 0  3.89 0 0  3.9 0 0  3.91 0 0  3.92 0 0  3.93 0 0  3.94 0 0  3.95 0 0  3.96 0 0  3.97 0 0  3.98 0 0  3.99 0 0  4 0 0  4.01 0 0  4.02 0 0  4.03 0 0  4.04 0 0  4.05 0 0  4.06 0 0  4.07 0 0  4.08 0 0  4.09 0 0  4.1 0 0  4.11 0 0  4.12 0 0  4.13 0 0  4.14 0 0  4.15 0 0  4.16 0 0  4.17 0 0  4.18 0 0  4.19 0 0  4.2 0 0  4.21 0 0  4.22 0 0  4.23 0 0  4.24 0 0  4.25 0 0  4.26 0 0  4.27 0 0  4.28 0 0  4.29 0 0  4.3 0 0  4.31 0 0  4.32 0 0  4.33 0 0  4.34 0 0  4.35 0 0  4.36 0 0  4.37 0 0  4.38 0 0  4.39 0 0  4.4 0 0  4.41 0 0  4.42 0 0  4.43 0 0  4.44 0 0  4.45 0 0  4.46 0 0  4.47 0 0  4.48 0 0  4.49 0 0  4.5 0 0  4.51 0 0  4.52 0 0  4.53 0 0  4.54 0 0  4.55 0 0  4.56 0 0  4.57 0 0  4.58 0 0  4.59 0 0  4.6 0 0  4.61 0 0  4.62 0 0  4.63 0 0  4.64 0 0  4.65 0 0  4.66 0 0  4.67 0 0  4.68 0 0  4.69 0 0  4.7 0 0  4.71 0 0  4.72 0 0  4.73 0 0  4.74 0 0  4.75 0 0  4.76 -0.03139525976465602 0  4.77 -0.0626666167821508 0  4.78 -0.09369065729286308 0  4.79 -0.1243449435824275 0  4.8 -0.1545084971874732 0  4.81 -0.1840622763423378 0  4.82 -0.2128896457825371 0  4.83 -0.2408768370508579 0  4.84 -0.2679133974894979 0  4.85 -0.2938926261462357 0  4.86 -0.3187119948743456 0  4.87 -0.3422735529643445 0  4.88 -0.3644843137107056 0  4.89 -0.385256621387894 0  4.9 -0.4045084971874743 0  4.91 -0.4221639627510078 0  4.92 -0.4381533400219317 0  4.93 -0.4524135262330094 0  4.94 -0.4648882429441261 0  4.95 -0.4755282581475769 0  4.96 -0.4842915805643155 0  4.97 -0.4911436253643442 0  4.98 -0.4960573506572391 0  4.99 -0.4990133642141358 0  5 -0.5 0  5.01 -0.4990133642141358 0  5.02 -0.4960573506572391 0  5.03 -0.4911436253643442 0  5.04 -0.4842915805643155 0  5.05 -0.475528258147577 0  5.06 -0.4648882429441262 0  5.07 -0.4524135262330093 0  5.08 -0.4381533400219317 0  5.09 -0.4221639627510078 0  5.1 -0.4045084971874744 0  5.11 -0.3852566213878941 0  5.12 -0.3644843137107056 0  5.13 -0.3422735529643446 0  5.14 -0.3187119948743456 0  5.15 -0.2938926261462357 0  5.16 -0.2679133974894979 0  5.17 -0.2408768370508578 0  5.18 -0.2128896457825372 0  5.19 -0.1840622763423378 0  5.2 -0.1545084971874731 0  5.21 -0.1243449435824276 0  5.22 -0.09369065729286316 0  5.23 -0.06266661678215095 0  5.24 -0.03139525976465612 0  5.25 -6.123233995736766e-17 0  5.26 0 0  5.27 0 0  5.28 0 0  5.29 0 0  5.3 0 0  5.31 0 0  5.32 0 0  5.33 0 0  5.34 0 0  5.35 0 0  5.36 0 0  5.37 0 0  5.38 0 0  5.39 0 0  5.4 0 0  5.41 0 0  5.42 0 0  5.43 0 0  5.44 0 0  5.45 0 0  5.46 0 0  5.47 0 0  5.48 0 0  5.49 0 0  5.5 0 0  5.51 0 0  5.52 0 0  5.53 0 0  5.54 0 0  5.55 0 0  5.56 0 0  5.57 0 0  5.58 0 0  5.59 0 0  5.6 0 0  5.61 0 0  5.62 0 0  5.63 0 0  5.64 0 0  5.65 0 0  5.66 0 0  5.67 0 0  5.68 0 0  5.69 0 0  5.7 0 0  5.71 0 0  5.72 0 0  5.73 0 0  5.74 0 0  5.75 0 0  5.76 0 0  5.77 0 0  5.78 0 0  5.79 0 0  5.8 0 0  5.81 0 0  5.82 0 0  5.83 0 0  5.84 0 0  5.85 0 0  5.86 0 0  5.87 0 0  5.88 0 0  5.89 0 0  5.9 0 0  5.91 0 0  5.92 0 0  5.93 0 0  5.94 0 0  5.95 0 0  5.96 0 0  5.97 0 0  5.98 0 0  5.99 0 0  6 0 0  6.01 0 0  6.02 0 0  6.03 0 0  6.04 0 0  6.05 0 0  6.06 0 0  6.07 0 0  6.08 0 0  6.09 0 0  6.1 0 0  6.11 0 0  6.12 0 0  6.13 0 0  6.14 0 0  6.15 0 0  6.16 0 0  6.17 0 0  6.18 0 0  6.19 0 0  6.2 0 0  6.21 0 0  6.22 0 0  6.23 0 0  6.24 0 0  6.25 0 0  6.26 0 0  6.27 0 0  6.28 0 0  6.29 0 0  6.3 0 0  6.31 0 0  6.32 0 0  6.33 0 0  6.34 0 0  6.35 0 0  6.36 0 0  6.37 0 0  6.38 0 0  6.39 0 0  6.4 0 0  6.41 0 0  6.42 0 0  6.43 0 0  6.44 0 0  6.45 0 0  6.46 0 0  6.47 0 0  6.48 0 0  6.49 0 0  6.5 0 0  6.51 0 0  6.52 0 0  6.53 0 0  6.54 0 0  6.55 0 0  6.56 0 0  6.57 0 0  6.58 0 0  6.59 0 0  6.6 0 0  6.61 0 0  6.62 0 0  6.63 0 0  6.64 0 0  6.65 0 0  6.66 0 0  6.67 0 0  6.68 0 0  6.69 0 0  6.7 0 0  6.71 0 0  6.72 0 0  6.73 0 0  6.74 0 0  6.75 0 0  6.76 0 0  6.77 0 0  6.78 0 0  6.79 0 0  6.8 0 0  6.81 0 0  6.82 0 0  6.83 0 0  6.84 0 0  6.85 0 0  6.86 0 0  6.87 0 0  6.88 0 0  6.89 0 0  6.9 0 0  6.91 0 0  6.92 0 0  6.93 0 0  6.94 0 0  6.95 0 0  6.96 0 0  6.97 0 0  6.98 0 0  6.99 0 0  7 0 0  7.01 0 0  7.02 0 0  7.03 0 0  7.04 0 0  7.05 0 0  7.06 0 0  7.07 0 0  7.08 0 0  7.09 0 0  7.1 0 0  7.11 0 0  7.12 0 0  7.13 0 0  7.14 0 0  7.15 0 0  7.16 0 0  7.17 0 0  7.18 0 0  7.19 0 0  7.2 0 0  7.21 0 0  7.22 0 0  7.23 0 0  7.24 0 0  7.25 0 0  7.26 0 0  7.27 0 0  7.28 0 0  7.29 0 0  7.3 0 0  7.31 0 0  7.32 0 0  7.33 0 0  7.34 0 0  7.35 0 0  7.36 0 0  7.37 0 0  7.38 0 0  7.39 0 0  7.4 0 0  7.41 0 0  7.42 0 0  7.43 0 0  7.44 0 0  7.45 0 0  7.46 0 0  7.47 0 0  7.48 0 0  7.49 0 0  7.5 0 0  7.51 0 0  7.52 0 0  7.53 0 0  7.54 0 0  7.55 0 0  7.56 0 0  7.57 0 0  7.58 0 0  7.59 0 0  7.6 0 0  7.61 0 0  7.62 0 0  7.63 0 0  7.64 0 0  7.65 0 0  7.66 0 0  7.67 0 0  7.68 0 0  7.69 0 0  7.7 0 0  7.71 0 0  7.72 0 0  7.73 0 0  7.74 0 0  7.75 0 0  7.76 0 0  7.77 0 0  7.78 0 0  7.79 0 0  7.8 0 0  7.81 0 0  7.82 0 0  7.83 0 0  7.84 0 0  7.85 0 0  7.86 0 0  7.87 0 0  7.88 0 0  7.89 0 0  7.9 0 0  7.91 0 0  7.92 0 0  7.93 0 0  7.94 0 0  7.95 0 0  7.96 0 0  7.97 0 0  7.98 0 0  7.99 0 0  8 0 0  8.01 0 0  8.02 0 0  8.029999999999999 0 0  8.039999999999999 0 0  8.050000000000001 0 0  8.06 0 0  8.07 0 0  8.08 0 0  8.09 0 0  8.1 0 0  8.109999999999999 0 0  8.119999999999999 0 0  8.130000000000001 0 0  8.140000000000001 0 0  8.15 0 0  8.16 0 0  8.17 0 0  8.18 0 0  8.19 0 0  8.199999999999999 0 0  8.210000000000001 0 0  8.220000000000001 0 0  8.23 0 0  8.24 0 0  8.25 0 0  8.26 0 0  8.27 0 0  8.279999999999999 0 0  8.289999999999999 0 0  8.300000000000001 0 0  8.31 0 0  8.32 0 0  8.33 0 0  8.34 0 0  8.35 0 0  8.359999999999999 0 0  8.369999999999999 0 0  8.380000000000001 0 0  8.390000000000001 0 0  8.4 0 0  8.41 0 0  8.42 0 0  8.43 0 0  8.44 0 0  8.449999999999999 0 0  8.460000000000001 0 0  8.470000000000001 0 0  8.48 0 0  8.49 0 0  8.5 0 0  8.51 0 0  8.52 0 0  8.529999999999999 0 0  8.539999999999999 0 0  8.550000000000001 0 0  8.56 0 0  8.57 0 0  8.58 0 0  8.59 0 0  8.6 0 0  8.
[...]
<PointData  Scalars="f_1726"> 
<DataArray  type="Float64"  Name="f_1726"  format="ascii">1.0000000000000000e+00  1.0000000000000000e+00  9.7600687387360852e-01  9.5863363717482641e-01  9.4397963764128245e-01  9.3129865113790855e-01  9.2047436491218693e-01  9.1065068437976926e-01  9.0165725917765727e-01  8.9344144249121837e-01  8.8591896749697996e-01  8.7887128685082316e-01  8.7226368726124104e-01  8.6603643517404683e-01  8.6013578467659524e-01  8.5458358329064388e-01  8.4932308878931606e-01  8.4427054135610269e-01  8.3940464481119348e-01  8.3476410756183639e-01  8.3030356975550568e-01  8.2601654394884272e-01  8.2189345030072369e-01  8.1796087239895621e-01  8.1418526957724857e-01  8.1048702632401515e-01  8.0693898516614937e-01  8.0350828377242944e-01  8.0017662697687808e-01  7.9693284112643425e-01  7.9380001218544660e-01  7.9074861651642669e-01  7.8777566988549363e-01  7.8487404638975833e-01  7.8206564677697776e-01  7.7932325982870321e-01  7.7661112728346171e-01  7.7398514999858259e-01  7.7141978277797973e-01  7.6892638098133692e-01  7.6648204510191997e-01  7.6410248480548759e-01  7.6176314359467701e-01  7.5945862346423365e-01  7.5718168144236320e-01  7.5495597524104829e-01  7.5276013162169575e-01  7.5060982747396610e-01  7.4849654452424585e-01  7.4642647882223179e-01  7.4439746751406721e-01  7.4242390376372036e-01  7.4048800148385963e-01  7.3856827121829016e-01  7.3668847268938997e-01  7.3483322767319370e-01  7.3301749552512763e-01  7.3122508970125577e-01  7.2945692881282076e-01  7.2770692254977132e-01  7.2599679956737029e-01  7.2430941652286873e-01  7.2264828352824895e-01  7.2100738541803466e-01  7.1939824697189036e-01  7.1780707428319879e-01  7.1622664333857544e-01  7.1467561416061642e-01  7.1313847080837223e-01  7.1161691113188053e-01  7.1011132371276131e-01  7.0863275849611873e-01  7.0716816534387128e-01  7.0572590339490471e-01  7.0429625114779426e-01  7.0288282484791642e-01  7.0148302488730518e-01  7.0010470683651471e-01  6.9873631845688522e-01  6.9739324561905291e-01  6.9606231527800844e-01  6.9474595550354779e-01  6.9344089124563280e-01  6.9214247197910161e-01  6.9086397502998798e-01  6.8959351678255021e-01  6.8834012770480213e-01  6.8710036792286855e-01  6.8588163449152106e-01  6.8467335263185691e-01  6.8348626523895029e-01  6.8230858872007072e-01  6.8114245341879343e-01  6.7998471496945767e-01  6.7883181925010361e-01  6.7769477242192389e-01  6.7656288693218980e-01  6.7543974825086806e-01  6.7432348519902752e-01  6.7322300641859767e-01  6.7212817714305451e-01  6.7103479643833086e-01  6.6995329154620242e-01  6.6887422900396776e-01  6.6780734210692672e-01  6.6674349466705451e-01  6.6568314323405553e-01  6.6462670269494328e-01  6.6358358563538644e-01  6.6254406409227162e-01  6.6150596196272726e-01  6.6048083185566897e-01  6.5945948800060117e-01  6.5845048656831684e-01  6.5744517995429397e-01  6.5644240183507396e-01  6.5545246925936573e-01  6.5446585593341811e-01  6.5348186876726622e-01  6.5250320633656522e-01  6.5153672172665278e-01  6.5057467340521102e-01  6.4962301312592630e-01  6.4867185459891208e-01  6.4772923356633394e-01  6.4678662883878568e-01  6.4584882860865511e-01  6.4491397967097885e-01  6.4398175101371746e-01  6.4306140246568910e-01  6.4214411887163791e-01  6.4124065298733546e-01  6.4034178924011476e-01  6.3945080085990913e-01  6.3856511214059841e-01  6.3768084010821913e-01  6.3680478058356360e-01  6.3593074174298314e-01  6.3506593518634047e-01  6.3420210715036995e-01  6.3334458819598305e-01  6.3248960470475557e-01  6.3163885353412419e-01  6.3079188479722814e-01  6.2995460249206781e-01  6.2911997566304290e-01  6.2828564339960691e-01  6.2745803876039774e-01  6.2663137057767337e-01  6.2581313376257408e-01  6.2499522369627580e-01  6.2418056902793484e-01  6.2336598935797916e-01  6.2255849238927452e-01  6.2175115186959273e-01  6.2094653997940663e-01  6.2014217925369941e-01  6.1933861547716729e-01  6.1854229339286371e-01  6.1774623007822149e-01  6.1695295605283462e-01  6.1616320769269795e-01  6.1538125298566770e-01  6.1460054986074453e-01  6.1382074602430370e-01  6.1304834621323001e-01  6.1227603480769521e-01  6.1151214994384973e-01  6.1074890163094731e-01  6.0999040151102224e-01  6.0923499281755567e-01  6.0848761836593124e-01  6.0774037318512952e-01  6.0699367397114889e-01  6.0625503108615286e-01  6.0551775168994360e-01  6.0478322362299330e-01  6.0405040898987727e-01  6.0332505528807800e-01  6.0260043873691593e-01  6.0187527098005522e-01  6.0115561796695149e-01  6.0043642208211578e-01  5.9972263456708730e-01  5.9900711034719045e-01  5.9828922936022844e-01  5.9757679428307064e-01  5.9686358634101377e-01  5.9615430968205640e-01  5.9544427758291751e-01  5.9473604170147476e-01  5.9402943036345368e-01  5.9332898119901578e-01  5.9262742170649141e-01  5.9192407492213750e-01  5.9122626080241447e-01  5.9052799926260524e-01  5.8983311061876487e-01  5.8913882099276160e-01  5.8844546717035529e-01  5.8775900949544546e-01  5.8707309899019611e-01  5.8638848468695592e-01  5.8570425546464300e-01  5.8502410626780577e-01  5.8434114957785399e-01  5.8365580093119207e-01  5.8297639267311152e-01  5.8229707720024748e-01  5.8162234480986597e-01  5.8094849836521933e-01  5.8027666518943499e-01  5.7960707899332509e-01  5.7894217605581089e-01  5.7827637632217699e-01  5.7761536409257386e-01  5.7695285827799170e-01  5.7629292131533116e-01  5.7563260632462288e-01  5.7497312421767499e-01  5.7431463986037246e-01  5.7366103946647595e-01  5.7300695614121511e-01  5.7235751532075174e-01  5.7170583304678990e-01  5.7105142660337216e-01  5.7040023018487529e-01  5.6974669352597196e-01  5.6909267785668483e-01  5.6843930746566873e-01  5.6779244185644695e-01  5.6714570080552906e-01  5.6649785756420490e-01  5.6585686977918803e-01  5.6521747514738974e-01  5.6457784769644148e-01  5.6394256350959704e-01  5.6330717599272273e-01  5.6267656007130995e-01  5.6204468735379531e-01  5.6141391000138396e-01  5.6078325977659194e-01  5.6015765842981102e-01  5.5953094956942062e-01  5.5890212843376696e-01  5.5827774959753529e-01  5.5765248992590799e-01  5.5702819285713057e-01  5.5640357659978623e-01  5.5578460534964214e-01  5.5516439955269470e-01  5.5454903995547933e-01  5.5393282812002642e-01  5.5331730985156047e-01  5.5270165652908576e-01  5.5208819414183508e-01  5.5147070793741726e-01  5.5084997385230239e-01  5.5023386605931535e-01  5.4961708072557569e-01  5.4900415445929462e-01  5.4839172668156877e-01  5.4778086794739267e-01  5.4717178586581650e-01  5.4656701389370743e-01  5.4596151321361441e-01  5.4535569299768594e-01  5.4475384154109807e-01  5.4415053725552220e-01  5.4354789073634791e-01  5.4294636645189676e-01  5.4234977019178621e-01  5.4175272869872371e-01  5.4115467225612002e-01  5.4056069867274403e-01  5.3996620584619803e-01  5.3937146783192114e-01  5.3878129226725147e-01  5.3819088080607946e-01  5.3759970750627284e-01  5.3701405935310675e-01  5.3642825662703442e-01  5.3584249187421962e-01  5.3525714743458719e-01  5.3467581509869044e-01  5.3409355307548989e-01  5.3351163485182074e-01  5.3293324846096846e-01  5.3235229773847736e-01  5.3177306410344594e-01  5.3119311950060522e-01  5.3061399721211100e-01  5.3003618614135883e-01  5.2946312493463732e-01  5.2888917398896129e-01  5.2831339723827675e-01  5.2774193184903695e-01  5.2716990612709547e-01  5.2659894279248942e-01  5.2602776561327103e-01  5.2546124741150391e-01  5.2489309046127963e-01  5.2432865110718341e-01  5.2376270178142326e-01  5.2319669730759366e-01  5.2262991450980922e-01  5.2206450461996046e-01  5.2149473923139589e-01  5.2092151867668390e-01  5.2035192144180531e-01  5.1978104338724163e-01  5.1921315779723753e-01  5.1864514998507660e-01  5.1807821028205581e-01  5.1751259168331942e-01  5.1695071023987016e-01  5.1638788417752268e-01  5.1582463650761745e-01  5.1526491217601966e-01  5.1470366894809627e-01  5.1414290026054532e-01  5.1358315023393664e-01  5.1302733434991787e-01  5.1247018304696401e-01  5.1191220009526950e-01  5.1135800310398272e-01  5.1080217821347840e-01  5.1025020615734529e-01  5.0969733711488741e-01  5.0914461606555539e-01  5.0859228173992543e-01  5.0804320725746122e-01  5.0749280249300333e-01  5.0694181751939915e-01  5.0639408766944316e-01  5.0584462252403406e-01  5.0529923840771340e-01  5.0475238198877070e-01  5.0420719021614213e-01  5.0366249580412337e-01  5.0312192713233095e-01  5.0257913884045935e-01  5.0204018890055624e-01  5.0149947115702154e-01  5.0096022852293354e-01  5.0042117900892802e-01  4.9988688605963832e-01  4.9935190139600849e-01  4.9882001385447067e-01  4.9828792466351407e-01  4.9775531956049474e-01  4.9722614500616247e-01  4.9669597235884455e-01  4.9616565635893584e-01  4.9563552231491931e-01  4.9510893562816799e-01  4.9458129134800582e-01  4.9405209145119305e-01  4.9352535198223274e-01  4.9299707379859509e-01  4.9246742264778642e-01  4.9193943988689831e-01  4.9140958725196149e-01  4.9088261038334874e-01  4.9035327329162881e-01  4.8982441106895891e-01  4.8929403627584234e-01  4.8876699103875665e-01  4.8823872120073825e-01  4.8771098148752112e-01  4.8718754673794962e-01  4.8666295400222831e-01  4.8614037959525952e-01  4.8561879926501350e-01  4.8509739594145784e-01  4.8457873714673300e-01  4.8405785424530962e-01  4.8353983428466657e-01  4.8301938991322846e-01  4.8249969531618814e-01  4.8197966570148632e-01  4.8146337491692970e-01  4.8094552763325210e-01  4.8042682367440792e-01  4.7991328495577362e-01  4.7939993246968526e-01  4.7888509672476787e-01  4.7837441778748491e-01  4.7786303291073134e-01  4.7735465971929641e-01  4.7684531340741487e-01  4.7633979798511061e-01  4.7583279812323820e-01  4.7532616230075536e-01  4.7481794628431112e-01  4.7430873250850669e-01  4.7380143612708370e-01  4.7329158017734851e-01  4.7278155300353453e-01  4.7227057944822542e-01  4.7176205073227395e-01  4.7125181510323583e-01  4.7074613357865730e-01  4.7024010692260126e-01  4.6973596158614289e-01  4.6923242890386324e-01  4.6872913501630065e-01  4.6822959791626984e-01  4.6772982009145764e-01  4.6723416188086975e-01  4.6673746362145291e-01  4.6624094546749267e-01  4.6574282399559819e-01  4.6524676715772589e-01  4.6474799059770955e-01  4.6425002629699574e-01  4.6375060358869086e-01  4.6325105402280287e-01  4.6275082126024814e-01  4.6225355996090201e-01  4.6175387483947000e-01  4.6125619523891886e-01  4.6075617676671760e-01  4.6025410937736061e-01  4.5975340821038824e-01  4.5924905983458392e-01  4.5874395846772242e-01  4.5823639713379788e-01  4.5772636874966449e-01  4.5721770954783902e-01  4.5670552353823113e-01  4.5619005639890164e-01  4.5567231470187342e-01  4.5515496247573983e-01  4.5463353969319042e-01  4.5411048744705612e-01  4.5358268784354955e-01  4.5305092770680183e-01  4.5251758447672080e-01  4.5197736222121704e-01  4.5143219249098793e-01  4.5088070443816913e-01  4.5032500543325543e-01  4.4975973876004188e-01  4.4918700531199174e-01  4.4860603547916766e-01  4.4801889085175700e-01  4.4741945405784106e-01  4.4680757948845484e-01  4.4618435844346693e-01  4.4554532580069128e-01  4.4489287868514638e-01  4.4422011318642668e-01  4.4353130626663217e-01  4.4282004301976041e-01  4.4208646496964571e-01  4.4132712055725626e-01  4.4054047810699315e-01  4.3971848018288645e-01  4.3886225051145633e-01  4.3796546703999656e-01  4.3703930522446843e-01  4.3606157144634727e-01  4.3502995524291188e-01  4.3394145957499730e-01  4.3278459182176954e-01  4.3155658996833046e-01  4.3022672559280267e-01  4.2878307571143720e-01  4.2720914591059944e-01  4.2548653444688644e-01  4.2354936478958882e-01  4.2137979552650612e-01  4.1879186637577692e-01  4.1576668150453489e-01  4.1189729402869674e-01  4.0525688049852165e-01  3.7612234059861904e-01  3.5447285848194215e-01  3.3523102663621218e-01  3.1825527659773839e-01  3.0298755709105246e-01  2.8878401241435353e-01  2.7612356588718423e-01  2.6456021388167456e-01  2.5412286168144771e-01  2.4467634634598578e-01  2.3640479762891869e-01  2.2892388786493062e-01  2.2215592843503612e-01  2.1630119054666622e-01  2.1118714361976165e-01  2.0690602784860834e-01  2.0318730274628660e-01  2.0017076264541678e-01  1.9760931359176459e-01  1.9559700608599137e-01  1.9407368049089893e-01  1.9298724970083395e-01  1.9224966224897050e-01  1.9183868745773833e-01  1.9168660096846352e-01  1.9182811251087520e-01  1.9222470217536985e-01  1.9294329709157421e-01  1.9399567903551274e-01  1.9548166527560651e-01  1.9745140399568498e-01  1.9995551387786212e-01  2.0289892257747877e-01  2.0652004832710028e-01  2.1067230493982894e-01  2.1561354614128816e-01  2.2123648777713148e-01  2.2760512596185786e-01  2.3459339006436092e-01  2.4254035822046671e-01  2.5116332131150165e-01  2.6067783069315503e-01  2.7082942721731473e-01  2.8169429938373103e-01  2.9364739437208381e-01  3.0628312257335322e-01  3.1989694478606934e-01  3.3492632646496029e-01  3.5172974887655639e-01  3.7220695467468518e-01  3.7554691943654495e-01  3.7736101359844931e-01  3.7869565152069545e-01  3.7972162136380494e-01  3.8048195983765903e-01  3.8109163486855474e-01  3.8155675309460158e-01  3.8194625461148668e-01  3.8226368989179199e-01  3.8251171188950556e-01  3.8270749186945185e-01  3.8285203350667435e-01  3.8296090782121306e-01  3.8304025281059501e-01  3.8309022644363300e-01  3.8311129557214790e-01  3.8311703103129396e-01  3.8310033108187319e-01  3.8306102642182627e-01  3.8300262738930291e-01  3.8292633495344719e-01  3.8283398673258306e-01  3.8272464484439711e-01  3.8260392703818852e-01  3.8247140636040483e-01  3.8232817483714737e-01  3.8217294361649617e-01  3.8200826731315907e-01  3.8183351947391786e-01  3.8165276333356446e-01  3.8146313812000926e-01  3.8126295113914543e-01  3.8105543910283424e-01  3.8084103937677044e-01  3.8062106881047503e-01  3.8039367654919742e-01  3.8016254319966475e-01  3.7992697886336352e-01  3.7968478337833578e-01  3.7943777264048040e-01  3.7918566932290154e-01  3.7893024449445112e-01  3.7866916788113753e-01  3.7840470805266180e-01  3.7813812455163992e-01  3.7786659142061779e-01  3.7759217868795403e-01  3.7731430839697666e-01  3.7703533551169616e-01  3.7675241251898384e-01  3.7646797076636540e-01  3.7618020588193446e-01  3.7589006793519786e-01  3.7559835634151056e-01  3.7530335981438517e-01  3.7500721867354697e-01  3.7470697511434198e-01  3.7440351519605097e-01  3.7409907921288443e-01  3.7379103667902908e-01  3.7348160229759303e-01  3.7316876800278109e-01  3.7285381077919083e-01  3.7253696224104876e-01  3.7222010002440092e-01  3.7190006484952970e-01  3.7157738486606989e-01  3.7125478051022870e-01  3.7092950015795162e-01  3.7060268339776264e-01  3.7027378915038389e-01  3.6994609559157382e-01  3.6961658040874473e-01  3.6928749715451170e-01  3.6895642687325397e-01  3.6862410837809351e-01  3.6829032093562364e-01  3.6795723259807050e-01  3.6762147210297658e-01  3.6728322311492545e-01  3.6694615733390840e-01  3.6660691492115072e-01  3.6626902079681689e-01  3.6592956489848394e-01  3.6558963087524932e-01  3.6524933181254188e-01  3.6491010516627531e-01  3.6456909756049866e-01  3.6422926781180259e-01  3.6388738766561340e-01  3.6354562841397908e-01  3.6320243808351876e-01  3.6285849286086974e-01  3.6251396777578337e-01  3.6217125847069109e-01  3.6182741319373457e-01  3.6148419706201118e-01  3.6113964650392361e-01  3.6079379257828048e-01  3.6044910936075197e-01  3.6010218474673383e-01  3.5975501767578938e-01  3.5940673827329594e-01  3.5905801504553564e-01  3.5871098124906931e-01  3.5836245006045303e-01  3.5801352970303241e-01  3.5766375230497444e-01  3.5731560350653979e-01  3.5696595522966079e-01  3.5661614079991671e-01  3.5626804405800622e-01  3.5591799095756960e-01  3.5556838126481116e-01  3.5521867998391327e-01  3.5487134974850276e-01  3.5452297784860665e-01  3.5417463530415660e-01  3.5382522753296597e-01  3.5347532760179523e-01  3.5312694999435590e-01  3.5277689129666412e-01  3.5242603075165657e-01  3.5207462605674283e-01  3.5172517385588525e-01  3.5137452336513492e-01  3.5102273317971266e-01  3.5067242828363299e-01  3.5032092422114003e-01  3.4997116915621707e-01  3.4962005123267265e-01  3.4926841194855923e-01  3.4891603907728752e-01  3.4856578499854851e-01  3.4821433346891156e-01  3.4786200225828118e-01  3.4751151016911425e-01  3.4715966858736985e-01  3.4680954267137193e-01  3.4645812599552039e-01  3.4610582909973353e-01  3.4575537816047053e-01  3.4540326451986736e-01  3.4505103175955459e-01  3.4469788890894687e-01  3.4434653162202528e-01  3.4399342254129112e-01  3.4364077913897573e-01  3.4328740491650978e-01  3.4293624149045404e-01  3.4258360092483203e-01  3.4223018009520056e-01  3.4187977778259493e-01  3.4152891146570785e-01  3.4117701137799428e-01  3.4082778023207810e-01  3.4047827328136876e-01  3.4012797414522727e-01  3.3977920282271173e-01  3.3942957078443969e-01  3.3908176812924862e-01  3.3873246937043794e-01  3.3838321398962617e-01  3.3803351570700640e-01  3.3768617645307997e-01  3.3733777781405977e-01  3.3698794916345515e-01  3.3664019471426915e-01  3.3629154928090027e-01  3.3594306449306710e-01  3.3559403808152555e-01  3.3524778757397006e-01  3.3490046349930969e-01  3.3455548313566569e-01  3.3420965150435289e-01  3.3386388815088874e-01  3.3351775006849721e-01  3.3317254344825198e-01  3.3282477091204776e-01  3.3247494529181076e-01  3.3212737897365457e-01  3.3177907954292729e-01  3.3143256851860564e-01  3.3108594247077328e-01  3.3073978176887547e-01  3.3039417977525648e-01  3.3005051633496402e-01  3.2970592755824674e-01  3.2936084100173624e-01  3.2901742157024094e-01  3.2867257512158193e-01  3.2832748623252522e-01  3.2798238635813937e-01  3.2763934264605166e-01  3.2729526474894888e-01  3.2695018596062814e-01  3.2660683136954749e-01  3.2626253983405235e-01  3.2591759456497099e-01  3.2557436435031706e-01  3.2523051261429092e-01  3.2488941917501007e-01  3.2454760117783193e-01  3.2420759439195662e-01  3.2386716734415116e-01  3.2352594397003709e-01  3.2318616676456680e-01  3.2284562783486953e-01  3.2250665404786655e-01  3.2216569869091533e-01  3.2182626806993275e-01  3.2148525599225836e-01  3.2114526321725101e-01  3.2080509733242540e-01  3.2046504826977484e-01  3.2012581759794867e-01  3.1978907816041791e-01  3.1945158842422050e-01  3.1911365611768994e-01  3.1877791845714587e-01  3.1844154005624020e-01  3.1810536159268415e-01  3.1776926796852806e-01  3.1743579554458906e-01  3.1710190781027769e-01  3.1676970470614774e-01  3.1643680371222344e-01  3.1610294186380244e-01  3.1576832240889374e-01  3.1543462247258075e-01  3.1509906003201454e-01  3.1476217944356782e-01  3.1442440168082791e-01  3.1408855551209203e-01  3.1375129717179934e-01  3.1341626334184697e-01  3.1308056950970475e-01  3.1274519576581372e-01  3.1241042496351684e-01  3.1207778259379310e-01  3.1174449170757240e-01  3.1141091462250819e-01  3.1107936808245212e-01  3.1074685126005874e-01  3.1041466212438712e-01  3.1008290941449207e-01  3.0975380690112225e-01  3.0942437649787896e-01  3.0909437219735930e-01  3.0876661744801420e-01  3.0843856460900870e-01  3.0811041162658281e-01  3.0778482802094437e-01  3.0745913976414924e-01  3.0713338018221198e-01  3.0681071923154041e-01  3.0648797428978808e-01  3.0616511401245361e-01  3.0584211791480820e-01  3.0552060145456583e-01  3.0519782414593111e-01  3.0487481518130216e-01  3.0455337628631840e-01  3.0423009982990834e-01  3.0390763718889319e-01  3.0358448774021779e-01  3.0326132093932640e-01  3.0293849958056368e-01  3.0261781806946952e-01  3.0229612396065908e-01  3.0197307953251062e-01  3.0165191033670458e-01  3.0132987899419644e-01  3.0100797004241525e-01  3.0068556019119891e-01  3.0036573501889646e-01  3.0004494598539155e-01  2.9972627979867694e-01  2.9940679829459232e-01  2.9908714528418640e-01  2.9876705020472644e-01  2.9844860769071052e-01  2.9812859543476583e-01  2.9780695605723739e-01  2.9748757616344873e-01  2.9716727387286812e-01  2.9684941106104751e-01  2.9653125142381526e-01  2.9621358375148660e-01  2.9589663516064518e-01  2.9558180127421768e-01  2.9526645392855438e-01  2.9495087033176459e-01  2.9463722719610036e-01  2.9432268574857157e-01  2.9400843285436201e-01  2.9369455573239900e-01  2.9338311214680113e-01  2.9307128372615471e-01  2.9275886088767372e-01  2.9244846745382724e-01  2.9213769061233602e-01  2.9182674387152