<?xml version="1.0"?>
<VTKFile type="UnstructuredGrid"  version="0.1"  >
<UnstructuredGrid>
<Piece  NumberOfPoints="4985" NumberOfCells="7768">
<Points>
<DataArray  type="Float64"  NumberOfComponents="3"  format="ascii">0 0.01 0  0 0 0  0.01 0 0  0.02 0 0  0.03 0 0  0.04 0 0  0.05 0 0  0.06 0 0  0.07000000000000001 0 0  0.08 0 0  0.09 0 0  0.1 0 0  0.11 0 0  0.12 0 0  0.13 0 0  0.14 0 0  0.15 0 0  0.16 0 0  0.17 0 0  0.18 0 0  0.19 0 0  0.2 0 0  0.21 0 0  0.22 0 0  0.23 0 0  0.24 0 0  0.25 0 0  0.26 0 0  0.27 0 0  0.28 0 0  0.29 0 0  0.3 0 0  0.31 0 0  0.32 0 0  0.33 0 0  0.34 0 0  0.35 0 0  0.36 0 0  0.37 0 0  0.38 0 0  0.39 0 0  0.4 0 0  0.41 0 0  0.42 0 0  0.43 0 0  0.44 0 0  0.45 0 0  0.46 0 0  0.47 0 0  0.48 0 0  0.49 0 0  0.5 0 0  0.51 0 0  0.52 0 0  0.53 0 0  0.54 0 0  0.55 0 0  0.5600000000000001 0 0  0.57 0 0  0.58 0 0  0.59 0 0  0.6 0 0  0.61 0 0  0.62 0 0  0.63 0 0  0.64 0 0  0.65 0 0  0.66 0 0  0.67 0 0  0.68 0 0  0.6899999999999999 0 0  0.7 0 0  0.71 0 0  0.72 0 0  0.73 0 0  0.74 0 0  0.75 0 0  0.76 0 0  0.77 0 0  0.78 0 0  0.79 0 0  0.8 0 0  0.8100000000000001 0 0  0.82 0 0  0.83 0 0  0.84 0 0  0.85 0 0  0.86 0 0  0.87 0 0  0.88 0 0  0.89 0 0  0.9 0 0  0.91 0 0  0.92 0 0  0.93 0 0  0.9399999999999999 0 0  0.95 0 0  0.96 0 0  0.97 0 0  0.98 0 0  0.99 0 0  1 0 0  1.01 0 0  1.02 0 0  1.03 0 0  1.04 0 0  1.05 0 0  1.06 0 0  1.07 0 0  1.08 0 0  1.09 0 0  1.1 0 0  1.11 0 0  1.12 0 0  1.13 0 0  1.14 0 0  1.15 0 0  1.16 0 0  1.17 0 0  1.18 0 0  1.19 0 0  1.2 0 0  1.21 0 0  1.22 0 0  1.23 0 0  1.24 0 0  1.25 0 0  1.26 0 0  1.27 0 0  1.28 0 0  1.29 0 0  1.3 0 0  1.31 0 0  1.32 0 0  1.33 0 0  1.34 0 0  1.35 0 0  1.36 0 0  1.37 0 0  1.38 0 0  1.39 0 0  1.4 0 0  1.41 0 0  1.42 0 0  1.43 0 0  1.44 0 0  1.45 0 0  1.46 0 0  1.47 0 0  1.48 0 0  1.49 0 0  1.5 0 0  1.51 0 0  1.52 0 0  1.53 0 0  1.54 0 0  1.55 0 0  1.56 0 0  1.57 0 0  1.58 0 0  1.59 0 0  1.6 0 0  1.61 0 0  1.62 0 0  1.63 0 0  1.64 0 0  1.65 0 0  1.66 0 0  1.67 0 0  1.68 0 0  1.69 0 0  1.7 0 0  1.71 0 0  1.72 0 0  1.73 0 0  1.74 0 0  1.75 0 0  1.76 0 0  1.77 0 0  1.78 0 0  1.79 0 0  1.8 0 0  1.81 0 0  1.82 0 0  1.83 0 0  1.84 0 0  1.85 0 0  1.86 0 0  1.87 0 0  1.88 0 0  1.89 0 0  1.9 0 0  1.91 0 0  1.92 0 0  1.93 0 0  1.94 0 0  1.95 0 0  1.96 0 0  1.97 0 0  1.98 0 0  1.99 0 0  2 0 0  2.01 0 0  2.02 0 0  2.03 0 0  2.04 0 0  2.05 0 0  2.06 0 0  2.07 0 0  2.08 0 0  2.09 0 0  2.1 0 0  2.11 0 0  2.12 0 0  2.13 0 0  2.14 0 0  2.15 0 0  2.16 0 0  2.17 0 0  2.18 0 0  2.19 0 0  2.2 0 0  2.21 0 0  2.22 0 0  2.23 0 0  2.24 0 0  2.25 0 0  2.26 0 0  2.27 0 0  2.28 0 0  2.29 0 0  2.3 0 0  2.31 0 0  2.32 0 0  2.33 0 0  2.34 0 0  2.35 0 0  2.36 0 0  2.37 0 0  2.38 0 0  2.39 0 0  2.4 0 0  2.41 0 0  2.42 0 0  2.43 0 0  2.44 0 0  2.45 0 0  2.46 0 0  2.47 0 0  2.48 0 0  2.49 0 0  2.5 0 0  2.51 0 0  2.52 0 0  2.53 0 0  2.54 0 0  2.55 0 0  2.56 0 0  2.57 0 0  2.58 0 0  2.59 0 0  2.6 0 0  2.61 0 0  2.62 0 0  2.63 0 0  2.64 0 0  2.65 0 0  2.66 0 0  2.67 0 0  2.68 0 0  2.69 0 0  2.7 0 0  2.71 0 0  2.72 0 0  2.73 0 0  2.74 0 0  2.75 0 0  2.76 0 0  2.77 0 0  2.78 0 0  2.79 0 0  2.8 0 0  2.81 0 0  2.82 0 0  2.83 0 0  2.84 0 0  2.85 0 0  2.86 0 0  2.87 0 0  2.88 0 0  2.89 0 0  2.9 0 0  2.91 0 0  2.92 0 0  2.93 0 0  2.94 0 0  2.95 0 0  2.96 0 0  2.97 0 0  2.98 0 0  2.99 0 0  3 0 0  3.01 0 0  3.02 0 0  3.03 0 0  3.04 0 0  3.05 0 0  3.06 0 0  3.07 0 0  3.08 0 0  3.09 0 0  3.1 0 0  3.11 0 0  3.12 0 0  3.13 0 0  3.14 0 0  3.15 0 0  3.16 0 0  3.17 0 0  3.18 0 0  3.19 0 0  3.2 0 0  3.21 0 0  3.22 0 0  3.23 0 0  3.24 0 0  3.25 0 0  3.26 0 0  3.27 0 0  3.28 0 0  3.29 0 0  3.3 0 0  3.31 0 0  3.32 0 0  3.33 0 0  3.34 0 0  3.35 0 0  3.36 0 0  3.37 0 0  3.38 0 0  3.39 0 0  3.4 0 0  3.41 0 0  3.42 0 0  3.43 0 0  3.44 0 0  3.45 0 0  3.46 0 0  3.47 0 0  3.48 0 0  3.49 0 0  3.5 0 0  3.51 0 0  3.52 0 0  3.53 0 0  3.54 0 0  3.55 0 0  3.56 0 0  3.57 0 0  3.58 0 0  3.59 0 0  3.6 0 0  3.61 0 0  3.62 0 0  3.63 0 0  3.64 0 0  3.65 0 0  3.66 0 0  3.67 0 0  3.68 0 0  3.69 0 0  3.7 0 0  3.71 0 0  3.72 0 0  3.73 0 0  3.74 0 0  3.75 0 0  3.76 0 0  3.77 0 0  3.78 0 0  3.79 0 0  3.8 0 0  3.81 0 0  3.82 0 0  3.83 0 0  3.84 0 0  3.85 0 0  3.86 0 0  3.87 0 0  3.88 0 0  3.89 0 0  3.9 0 0  3.91 0 0  3.92 0 0  3.93 0 0  3.94 0 0  3.95 0 0  3.96 0 0  3.97 0 0  3.98 0 0  3.99 0 0  4 0 0  4.01 0 0  4.02 0 0  4.03 0 0  4.04 0 0  4.05 0 0  4.06 0 0  4.07 0 0  4.08 0 0  4.09 0 0  4.1 0 0  4.11 0 0  4.12 0 0  4.13 0 0  4.14 0 0  4.15 0 0  4.16 0 0  4.17 0 0  4.18 0 0  4.19 0 0  4.2 0 0  4.21 0 0  4.22 0 0  4.23 0 0  4.24 0 0  4.25 0 0  4.26 0 0  4.27 0 0  4.28 0 0  4.29 0 0  4.3 0 0  4.31 0 0  4.32 0 0  4.33 0 0  4.34 0 0  4.35 0 0  4.36 0 0  4.37 0 0  4.38 0 0  4.39 0 0  4.4 0 0  4.41 0 0  4.42 0 0  4.43 0 0  4.44 0 0  4.45 0 0  4.46 0 0  4.47 0 0  4.48 0 0  4.49 0 0  4.5 0 0  4.51 0 0  4.52 0 0  4.53 0 0  4.54 0 0  4.55 0 0  4.56 0 0  4.57 0 0  4.58 0 0  4.59 0 0  4.6 0 0  4.61 0 0  4.62 0 0  4.63 0 0  4.64 0 0  4.65 0 0  4.66 0 0  4.67 0 0  4.68 0 0  4.69 0 0  4.7 0 0  4.71 0 0  4.72 0 0  4.73 0 0  4.74 0 0  4.75 0 0  4.76 -0.03139525976465602 0  4.77 -0.0626666167821508 0  4.78 -0.09369065729286308 0  4.79 -0.1243449435824275 0  4.8 -0.1545084971874732 0  4.81 -0.1840622763423378 0  4.82 -0.2128896457825371 0  4.83 -0.2408768370508579 0  4.84 -0.2679133974894979 0  4.85 -0.2938926261462357 0  4.86 -0.3187119948743456 0  4.87 -0.3422735529643445 0  4.88 -0.3644843137107056 0  4.89 -0.385256621387894 0  4.9 -0.4045084971874743 0  4.91 -0.4221639627510078 0  4.92 -0.4381533400219317 0  4.93 -0.4524135262330094 0  4.94 -0.4648882429441261 0  4.95 -0.4755282581475769 0  4.96 -0.4842915805643155 0  4.97 -0.4911436253643442 0  4.98 -0.4960573506572391 0  4.99 -0.4990133642141358 0  5 -0.5 0  5.01 -0.4990133642141358 0  5.02 -0.4960573506572391 0  5.03 -0.4911436253643442 0  5.04 -0.4842915805643155 0  5.05 -0.475528258147577 0  5.06 -0.4648882429441262 0  5.07 -0.4524135262330093 0  5.08 -0.4381533400219317 0  5.09 -0.4221639627510078 0  5.1 -0.4045084971874744 0  5.11 -0.3852566213878941 0  5.12 -0.3644843137107056 0  5.13 -0.3422735529643446 0  5.14 -0.3187119948743456 0  5.15 -0.2938926261462357 0  5.16 -0.2679133974894979 0  5.17 -0.2408768370508578 0  5.18 -0.2128896457825372 0  5.19 -0.1840622763423378 0  5.2 -0.1545084971874731 0  5.21 -0.1243449435824276 0  5.22 -0.09369065729286316 0  5.23 -0.06266661678215095 0  5.24 -0.03139525976465612 0  5.25 -6.123233995736766e-17 0  5.26 0 0  5.27 0 0  5.28 0 0  5.29 0 0  5.3 0 0  5.31 0 0  5.32 0 0  5.33 0 0  5.34 0 0  5.35 0 0  5.36 0 0  5.37 0 0  5.38 0 0  5.39 0 0  5.4 0 0  5.41 0 0  5.42 0 0  5.43 0 0  5.44 0 0  5.45 0 0  5.46 0 0  5.47 0 0  5.48 0 0  5.49 0 0  5.5 0 0  5.51 0 0  5.52 0 0  5.53 0 0  5.54 0 0  5.55 0 0  5.56 0 0  5.57 0 0  5.58 0 0  5.59 0 0  5.6 0 0  5.61 0 0  5.62 0 0  5.63 0 0  5.64 0 0  5.65 0 0  5.66 0 0  5.67 0 0  5.68 0 0  5.69 0 0  5.7 0 0  5.71 0 0  5.72 0 0  5.73 0 0  5.74 0 0  5.75 0 0  5.76 0 0  5.77 0 0  5.78 0 0  5.79 0 0  5.8 0 0  5.81 0 0  5.82 0 0  5.83 0 0  5.84 0 0  5.85 0 0  5.86 0 0  5.87 0 0  5.88 0 0  5.89 0 0  5.9 0 0  5.91 0 0  5.92 0 0  5.93 0 0  5.94 0 0  5.95 0 0  5.96 0 0  5.97 0 0  5.98 0 0  5.99 0 0  6 0 0  6.01 0 0  6.02 0 0  6.03 0 0  6.04 0 0  6.05 0 0  6.06 0 0  6.07 0 0  6.08 0 0  6.09 0 0  6.1 0 0  6.11 0 0  6.12 0 0  6.13 0 0  6.14 0 0  6.15 0 0  6.16 0 0  6.17 0 0  6.18 0 0  6.19 0 0  6.2 0 0  6.21 0 0  6.22 0 0  6.23 0 0  6.24 0 0  6.25 0 0  6.26 0 0  6.27 0 0  6.28 0 0  6.29 0 0  6.3 0 0  6.31 0 0  6.32 0 0  6.33 0 0  6.34 0 0  6.35 0 0  6.36 0 0  6.37 0 0  6.38 0 0  6.39 0 0  6.4 0 0  6.41 0 0  6.42 0 0  6.43 0 0  6.44 0 0  6.45 0 0  6.46 0 0  6.47 0 0  6.48 0 0  6.49 0 0  6.5 0 0  6.51 0 0  6.52 0 0  6.53 0 0  6.54 0 0  6.55 0 0  6.56 0 0  6.57 0 0  6.58 0 0  6.59 0 0  6.6 0 0  6.61 0 0  6.62 0 0  6.63 0 0  6.64 0 0  6.65 0 0  6.66 0 0  6.67 0 0  6.68 0 0  6.69 0 0  6.7 0 0  6.71 0 0  6.72 0 0  6.73 0 0  6.74 0 0  6.75 0 0  6.76 0 0  6.77 0 0  6.78 0 0  6.79 0 0  6.8 0 0  6.81 0 0  6.82 0 0  6.83 0 0  6.84 0 0  6.85 0 0  6.86 0 0  6.87 0 0  6.88 0 0  6.89 0 0  6.9 0 0  6.91 0 0  6.92 0 0  6.93 0 0  6.94 0 0  6.95 0 0  6.96 0 0  6.97 0 0  6.98 0 0  6.99 0 0  7 0 0  7.01 0 0  7.02 0 0  7.03 0 0  7.04 0 0  7.05 0 0  7.06 0 0  7.07 0 0  7.08 0 0  7.09 0 0  7.1 0 0  7.11 0 0  7.12 0 0  7.13 0 0  7.14 0 0  7.15 0 0  7.16 0 0  7.17 0 0  7.18 0 0  7.19 0 0  7.2 0 0  7.21 0 0  7.22 0 0  7.23 0 0  7.24 0 0  7.25 0 0  7.26 0 0  7.27 0 0  7.28 0 0  7.29 0 0  7.3 0 0  7.31 0 0  7.32 0 0  7.33 0 0  7.34 0 0  7.35 0 0  7.36 0 0  7.37 0 0  7.38 0 0  7.39 0 0  7.4 0 0  7.41 0 0  7.42 0 0  7.43 0 0  7.44 0 0  7.45 0 0  7.46 0 0  7.47 0 0  7.48 0 0  7.49 0 0  7.5 0 0  7.51 0 0  7.52 0 0  7.53 0 0  7.54 0 0  7.55 0 0  7.56 0 0  7.57 0 0  7.58 0 0  7.59 0 0  7.6 0 0  7.61 0 0  7.62 0 0  7.63 0 0  7.64 0 0  7.65 0 0  7.66 0 0  7.67 0 0  7.68 0 0  7.69 0 0  7.7 0 0  7.71 0 0  7.72 0 0  7.73 0 0  7.74 0 0  7.75 0 0  7.76 0 0  7.77 0 0  7.78 0 0  7.79 0 0  7.8 0 0  7.81 0 0  7.82 0 0  7.83 0 0  7.84 0 0  7.85 0 0  7.86 0 0  7.87 0 0  7.88 0 0  7.89 0 0  7.9 0 0  7.91 0 0  7.92 0 0  7.93 0 0  7.94 0 0  7.95 0 0  7.96 0 0  7.97 0 0  7.98 0 0  7.99 0 0  8 0 0  8.01 0 0  8.02 0 0  8.029999999999999 0 0  8.039999999999999 0 0  8.050000000000001 0 0  8.06 0 0  8.07 0 0  8.08 0 0  8.09 0 0  8.1 0 0  8.109999999999999 0 0  8.119999999999999 0 0  8.130000000000001 0 0  8.140000000000001 0 0  8.15 0 0  8.16 0 0  8.17 0 0  8.18 0 0  8.19 0 0  8.199999999999999 0 0  8.210000000000001 0 0  8.220000000000001 0 0  8.23 0 0  8.24 0 0  8.25 0 0  8.26 0 0  8.27 0 0  8.279999999999999 0 0  8.289999999999999 0 0  8.300000000000001 0 0  8.31 0 0  8.32 0 0  8.33 0 0  8.34 0 0  8.35 0 0  8.359999999999999 0 0  8.369999999999999 0 0  8.380000000000001 0 0  8.390000000000001 0 0  8.4 0 0  8.41 0 0  8.42 0 0  8.43 0 0  8.44 0 0  8.449999999999999 0 0  8.460000000000001 0 0  8.470000000000001 0 0  8.48 0 0  8.49 0 0  8.5 0 0  8.51 0 0  8.52 0 0  8.529999999999999 0 0  8.539999999999999 0 0  8.550000000000001 0 0  8.56 0 0  8.57 0 0  8.58 0 0  8.59 0 0  8.6 0 0  8.
[...]
<PointData  Scalars="f_1600"> 
<DataArray  type="Float64"  Name="f_1600"  format="ascii">1.0000000000000000e+00  1.0000000000000000e+00  9.9738185584304750e-01  9.9543653551677447e-01  9.9376551920713063e-01  9.9229265799530608e-01  9.9101676145864226e-01  9.8984361921357733e-01  9.8875875346565334e-01  9.8775254449831384e-01  9.8682400880524612e-01  9.8594436233916150e-01  9.8511419083905227e-01  9.8432351587379652e-01  9.8356920117089064e-01  9.8285028697575738e-01  9.8216606108198667e-01  9.8150405021382237e-01  9.8086323160964550e-01  9.8024527167132258e-01  9.7964958298560789e-01  9.7907267928758601e-01  9.7851494147755436e-01  9.7797697377199211e-01  9.7745833644145919e-01  9.7694822455300878e-01  9.7645358580119956e-01  9.7597397482428361e-01  9.7550508457415974e-01  9.7504630417984128e-01  9.7459885511243172e-01  9.7416232479993459e-01  9.7373451287087909e-01  9.7331508261879962e-01  9.7290518218183730e-01  9.7250442161968464e-01  9.7210724255223591e-01  9.7171928581038314e-01  9.7133933884679846e-01  9.7096708709488633e-01  9.7060131304741082e-01  9.7024177537872336e-01  9.6988810717982232e-01  9.6953803766391133e-01  9.6919141179587598e-01  9.6884983333796981e-01  9.6851297830377814e-01  9.6818089349568870e-01  9.6785414694853278e-01  9.6753260581202105e-01  9.6721613714920640e-01  9.6690541342675129e-01  9.6660015971481617e-01  9.6629695857516362e-01  9.6599798089694511e-01  9.6570230669479362e-01  9.6541076149620986e-01  9.6512308921470735e-01  9.6483800062402403e-01  9.6455539471507490e-01  9.6427693844823226e-01  9.6400235569783155e-01  9.6373068675130302e-01  9.6346183533382901e-01  9.6319621865085081e-01  9.6293361221684703e-01  9.6267193564613840e-01  9.6241315417426010e-01  9.6215701111013330e-01  9.6190289962182030e-01  9.6165090509229811e-01  9.6140158329132575e-01  9.6115471670544339e-01  9.6090996074157420e-01  9.6066760136141260e-01  9.6042703066958157e-01  9.6018819074250283e-01  9.5995159432798027e-01  9.5971664284265512e-01  9.5948421202067935e-01  9.5925407586806777e-01  9.5902552597815349e-01  9.5879896125980002e-01  9.5857304582560265e-01  9.5834927860836816e-01  9.5812745354043038e-01  9.5790758812183863e-01  9.5768968496594242e-01  9.5747413064472509e-01  9.5726033721823578e-01  9.5704860792194590e-01  9.5683873417958565e-01  9.5663004293840115e-01  9.5642286620263639e-01  9.5621610125005974e-01  9.5601096603480662e-01  9.5580726919820769e-01  9.5560456874977229e-01  9.5540281240957381e-01  9.5520247545915471e-01  9.5500337470287222e-01  9.5480444686523491e-01  9.5460664553722863e-01  9.5440939078175113e-01  9.5421324487774373e-01  9.5401804103129262e-01  9.5382319936267079e-01  9.5362874649367124e-01  9.5343550233068131e-01  9.5324328777560596e-01  9.5305125374490129e-01  9.5286050075578566e-01  9.5267045872201539e-01  9.5248152479406889e-01  9.5229353820317875e-01  9.5210572593784004e-01  9.5191906104813995e-01  9.5173336491605420e-01  9.5154816581812252e-01  9.5136360127113961e-01  9.5118035098108000e-01  9.5099789379345068e-01  9.5081620426182412e-01  9.5063509430574777e-01  9.5045451421932836e-01  9.5027451643571248e-01  9.5009494376137160e-01  9.4991611118368036e-01  9.4973743085260964e-01  9.4956002648041216e-01  9.4938348092172975e-01  9.4920836146608922e-01  9.4903449058273681e-01  9.4886141724301842e-01  9.4868939631095706e-01  9.4851747452050184e-01  9.4834638623726497e-01  9.4817566653867247e-01  9.4800574969836748e-01  9.4783647430824236e-01  9.4766767313165301e-01  9.4749956903812071e-01  9.4733197656475499e-01  9.4716491034360883e-01  9.4699878705620633e-01  9.4683346821555758e-01  9.4666815704692597e-01  9.4650353735240489e-01  9.4633918355476176e-01  9.4617548537533713e-01  9.4601228128805648e-01  9.4584923739902760e-01  9.4568623760289661e-01  9.4552371603708218e-01  9.4536153384022070e-01  9.4519941131289775e-01  9.4503764141060476e-01  9.4487574766038218e-01  9.4471450014038272e-01  9.4455375815699194e-01  9.4439332113346441e-01  9.4423321969335738e-01  9.4407380389394024e-01  9.4391494112842844e-01  9.4375608688622281e-01  9.4359797852519511e-01  9.4344024441412488e-01  9.4328331878209848e-01  9.4312704228990885e-01  9.4297134257822601e-01  9.4281617273495955e-01  9.4266161356597855e-01  9.4250750212688694e-01  9.4235350844654309e-01  9.4220025617703151e-01  9.4204760719402136e-01  9.4189521165894341e-01  9.4174304264259345e-01  9.4159153230246784e-01  9.4144054084251905e-01  9.4128946674873493e-01  9.4113891445022424e-01  9.4098847681675901e-01  9.4083831730424516e-01  9.4068828595222931e-01  9.4053778440148672e-01  9.4038765148539771e-01  9.4023775658436060e-01  9.4008800220539046e-01  9.3993856938302267e-01  9.3978917451646415e-01  9.3963982716442362e-01  9.3949083603177252e-01  9.3934204681597666e-01  9.3919296738066826e-01  9.3904432191126774e-01  9.3889598352767012e-01  9.3874783846446586e-01  9.3860013976902512e-01  9.3845241020603543e-01  9.3830535115083624e-01  9.3815882726199351e-01  9.3801222921564831e-01  9.3786548433713268e-01  9.3771879223428345e-01  9.3757200456066481e-01  9.3742479200464224e-01  9.3727809074485358e-01  9.3713177509168089e-01  9.3698579796157400e-01  9.3684036980738128e-01  9.3669518112573402e-01  9.3655019188557587e-01  9.3640558458424206e-01  9.3626098017030746e-01  9.3611665370330965e-01  9.3597246838351722e-01  9.3582835088828897e-01  9.3568449154363831e-01  9.3554076787124274e-01  9.3539719161005463e-01  9.3525402610145869e-01  9.3511092752266012e-01  9.3496794066986788e-01  9.3482491422541558e-01  9.3468143772690293e-01  9.3453798414382017e-01  9.3439443131340949e-01  9.3425068385134680e-01  9.3410688629596439e-01  9.3396371782611287e-01  9.3382103781699488e-01  9.3367812901898783e-01  9.3353589194701192e-01  9.3339421058237082e-01  9.3325242188906177e-01  9.3311103384326821e-01  9.3296966795191061e-01  9.3282860154881431e-01  9.3268770013019120e-01  9.3254676172504847e-01  9.3240577338108466e-01  9.3226510302022114e-01  9.3212461257317236e-01  9.3198366144633971e-01  9.3184302712775646e-01  9.3170259010792489e-01  9.3156218347861874e-01  9.3142181377184918e-01  9.3128194483817506e-01  9.3114219262663456e-01  9.3100283143027618e-01  9.3086373263387601e-01  9.3072447974215300e-01  9.3058499739295075e-01  9.3044525418739754e-01  9.3030510854869031e-01  9.3016433219687311e-01  9.3002390141582680e-01  9.2988369572677620e-01  9.2974376705035178e-01  9.2960431937137411e-01  9.2946504093872884e-01  9.2932588420926754e-01  9.2918700952772082e-01  9.2904830154378526e-01  9.2890939209651813e-01  9.2877073924199860e-01  9.2863221840677568e-01  9.2849377560428825e-01  9.2835544101190792e-01  9.2821747925368192e-01  9.2807976649539337e-01  9.2794184964998638e-01  9.2780424533338413e-01  9.2766684733742477e-01  9.2752926756134424e-01  9.2739215014472054e-01  9.2725538415809905e-01  9.2711824636940421e-01  9.2698159470469021e-01  9.2684529711980224e-01  9.2670893893954720e-01  9.2657247468414849e-01  9.2643626551085101e-01  9.2630019595574009e-01  9.2616385484950148e-01  9.2602763796761867e-01  9.2589140198684683e-01  9.2575518203886342e-01  9.2561913152053765e-01  9.2548303747236238e-01  9.2534694202933432e-01  9.2521121444909593e-01  9.2507572155373741e-01  9.2493982329623536e-01  9.2480430076889741e-01  9.2466903889353824e-01  9.2453385894320239e-01  9.2439874317742932e-01  9.2426400861111202e-01  9.2412928507525460e-01  9.2399478721244721e-01  9.2386039075665971e-01  9.2372569698206586e-01  9.2359064030305427e-01  9.2345518996183140e-01  9.2331920863131733e-01  9.2318251452273314e-01  9.2304601169630041e-01  9.2290958288891212e-01  9.2277329359177085e-01  9.2263734226527094e-01  9.2250146727691551e-01  9.2236563479453115e-01  9.2223001324012865e-01  9.2209448989107190e-01  9.2195873967887976e-01  9.2182320091386072e-01  9.2168775178728335e-01  9.2155235731947216e-01  9.2141703699160482e-01  9.2128194694300869e-01  9.2114695940083324e-01  9.2101177328325412e-01  9.2087687669320117e-01  9.2074187472579505e-01  9.2060717371351142e-01  9.2047265811247314e-01  9.2033803880564480e-01  9.2020329150961155e-01  9.2006868402678232e-01  9.1993410404040799e-01  9.1979929092743695e-01  9.1966472408282329e-01  9.1953009157275056e-01  9.1939575416764663e-01  9.1926157542744014e-01  9.1912752336581460e-01  9.1899356602784010e-01  9.1885981862157884e-01  9.1872596614423452e-01  9.1859232584619410e-01  9.1845875900921248e-01  9.1832527291476596e-01  9.1819184227060602e-01  9.1805874311949665e-01  9.1792584009562428e-01  9.1779303338618867e-01  9.1766042644561774e-01  9.1752762799874610e-01  9.1739504682597517e-01  9.1726257225162300e-01  9.1713001462979749e-01  9.1699737100560763e-01  9.1686486401920286e-01  9.1673237800377605e-01  9.1659952278622103e-01  9.1646667619248467e-01  9.1633373740615742e-01  9.1620037055173187e-01  9.1606701185232997e-01  9.1593335370544726e-01  9.1579972497340001e-01  9.1566599304912633e-01  9.1553208633090677e-01  9.1539792440619039e-01  9.1526392996892481e-01  9.1512998747438501e-01  9.1499582250419342e-01  9.1486196985208090e-01  9.1472829017126212e-01  9.1459470052676384e-01  9.1446141430645222e-01  9.1432789029731998e-01  9.1419433398108829e-01  9.1406043123183101e-01  9.1392640242197043e-01  9.1379211082029177e-01  9.1365763277446255e-01  9.1352295895604274e-01  9.1338834315257589e-01  9.1325364748110660e-01  9.1311861935792971e-01  9.1298401961293241e-01  9.1284971817257077e-01  9.1271495776149092e-01  9.1258046209674548e-01  9.1244582993790790e-01  9.1231126453938582e-01  9.1217646467018310e-01  9.1204162273091105e-01  9.1190659706950383e-01  9.1177108510186344e-01  9.1163518819754763e-01  9.1149875146598303e-01  9.1136198810564817e-01  9.1122477719375017e-01  9.1108704882917846e-01  9.1094878394378398e-01  9.1081033349578633e-01  9.1067137465501025e-01  9.1053239557260490e-01  9.1039326167468126e-01  9.1025386445803924e-01  9.1011441403419213e-01  9.0997455698426166e-01  9.0983463590341707e-01  9.0969432258917293e-01  9.0955364320884535e-01  9.0941245122320302e-01  9.0927045168294884e-01  9.0912750350395344e-01  9.0898372419635454e-01  9.0883897454801799e-01  9.0869323247179701e-01  9.0854665644069144e-01  9.0839908486234111e-01  9.0825048844568812e-01  9.0810101939420185e-01  9.0795023328202662e-01  9.0779820672090283e-01  9.0764480579822648e-01  9.0748976506017864e-01  9.0733309269244178e-01  9.0717463078535721e-01  9.0701412901899625e-01  9.0685165991474614e-01  9.0668725892821522e-01  9.0652069574380778e-01  9.0635180839326401e-01  9.0618052327544696e-01  9.0600652585346020e-01  9.0582968242352135e-01  9.0564983759581508e-01  9.0546632435870389e-01  9.0527936906446183e-01  9.0508917643034603e-01  9.0489498497575815e-01  9.0469659904876976e-01  9.0449361445137366e-01  9.0428568784525831e-01  9.0407209415521528e-01  9.0385262303332037e-01  9.0362720527323470e-01  9.0339588501134538e-01  9.0315770877442036e-01  9.0291242424215734e-01  9.0265963601888000e-01  9.0239737593905278e-01  9.0212539233794165e-01  9.0184274657850094e-01  9.0154913338883824e-01  9.0124401577678159e-01  9.0092744075932918e-01  9.0059745776043865e-01  9.0025297761917766e-01  8.9989066804995510e-01  8.9951014581145461e-01  8.9910874369234939e-01  8.9868637757565251e-01  8.9824847656525308e-01  8.9778129436439713e-01  8.9728589343440612e-01  8.9675814798148690e-01  8.9619747950784179e-01  8.9560184459440728e-01  8.9495403853875100e-01  8.9425342211272718e-01  8.9349137820368174e-01  8.9266122162658035e-01  8.9173301395823901e-01  8.9070577873400580e-01  8.8949886906978837e-01  8.8811330180023818e-01  8.8638762556679818e-01  8.8357897625541681e-01  8.7363789146214355e-01  8.6602567324530055e-01  8.5916562039890720e-01  8.5288977996811000e-01  8.4716560969913135e-01  8.4177755375697927e-01  8.3683900522254984e-01  8.3230088783678580e-01  8.2814488106384654e-01  8.2433895731434970e-01  8.2093368030613745e-01  8.1785612615485881e-01  8.1505986031940614e-01  8.1261002512411395e-01  8.1045797650959939e-01  8.0863437289434603e-01  8.0705716962167628e-01  8.0576675652374441e-01  8.0467768905063120e-01  8.0381890756075347e-01  8.0316658454350132e-01  8.0269986300753982e-01  8.0238296810522158e-01  8.0220577410900162e-01  8.0214025118174981e-01  8.0219960038827687e-01  8.0236905732995867e-01  8.0267597957768400e-01  8.0312639491404936e-01  8.0376040789211800e-01  8.0459768958235289e-01  8.0565808818919338e-01  8.0691152274249156e-01  8.0843961725837066e-01  8.1019791333411872e-01  8.1226321779951571e-01  8.1459771478056842e-01  8.1721764275915443e-01  8.2009424792956376e-01  8.2329562254637090e-01  8.2674848300043180e-01  8.3048301404090563e-01  8.3442952678816473e-01  8.3861435747020585e-01  8.4307204395130375e-01  8.4772076736151358e-01  8.5264828369897505e-01  8.5787625259767919e-01  8.6354883627926915e-01  8.7026899416613623e-01  8.7175243633615729e-01  8.7262948831942400e-01  8.7331442196445863e-01  8.7387287998869512e-01  8.7432057163529042e-01  8.7470491186971322e-01  8.7502623376460220e-01  8.7531445430805888e-01  8.7557032571333393e-01  8.7579402672619400e-01  8.7599361556269195e-01  8.7616870596839991e-01  8.7632682770550452e-01  8.7647080094536334e-01  8.7660031464584121e-01  8.7671548354402162e-01  8.7682341320804380e-01  8.7691993023279524e-01  8.7700510415027888e-01  8.7708059188129361e-01  8.7714706286011013e-01  8.7720478450324479e-01  8.7725380771042538e-01  8.7729690131474825e-01  8.7733408931798740e-01  8.7736507055989599e-01  8.7738986622062498e-01  8.7740951880772566e-01  8.7742391184357904e-01  8.7743510726997009e-01  8.7744082883998198e-01  8.7744107600324828e-01  8.7743722240097621e-01  8.7742940878177611e-01  8.7741770961437882e-01  8.7740211065858098e-01  8.7738445003020837e-01  8.7736343968102981e-01  8.7733905700407988e-01  8.7731185206210760e-01  8.7728184956193933e-01  8.7724904559788208e-01  8.7721340764417410e-01  8.7717563157989509e-01  8.7713568677795550e-01  8.7709352964138565e-01  8.7704925645748333e-01  8.7700282425192766e-01  8.7695439803314046e-01  8.7690392705062714e-01  8.7685163270156152e-01  8.7679753810308692e-01  8.7674227817941019e-01  8.7668528430337977e-01  8.7662655838788428e-01  8.7656625777418851e-01  8.7650432115573285e-01  8.7644109492611988e-01  8.7637640621715573e-01  8.7631019766673679e-01  8.7624252781346168e-01  8.7617347768703691e-01  8.7610302486575398e-01  8.7603130244413352e-01  8.7595842870090368e-01  8.7588433021321210e-01  8.7580917881885423e-01  8.7573300177381175e-01  8.7565573305852229e-01  8.7557736395471841e-01  8.7549794643832635e-01  8.7541776325072118e-01  8.7533673980586646e-01  8.7525482346032402e-01  8.7517208744273767e-01  8.7508834752705034e-01  8.7500364858111979e-01  8.7491819901376677e-01  8.7483191191353682e-01  8.7474473815860321e-01  8.7465697061697290e-01  8.7456835151011858e-01  8.7447919424235365e-01  8.7438942151647803e-01  8.7429901592702897e-01  8.7420798024382929e-01  8.7411646919934449e-01  8.7402425700725583e-01  8.7393151834869576e-01  8.7383816476722298e-01  8.7374420087256199e-01  8.7364973832278636e-01  8.7355471127273165e-01  8.7345914989046580e-01  8.7336328132876417e-01  8.7326702273935208e-01  8.7317020012511770e-01  8.7307294243531852e-01  8.7297496369022587e-01  8.7287649769272191e-01  8.7277744670860269e-01  8.7267781553951340e-01  8.7257772957426005e-01  8.7247718952109565e-01  8.7237637648278377e-01  8.7227519771102646e-01  8.7217352682303828e-01  8.7207134338700598e-01  8.7196890730636367e-01  8.7186612637175853e-01  8.7176288795303736e-01  8.7165941971852789e-01  8.7155561245880497e-01  8.7145155393418638e-01  8.7134721313123309e-01  8.7124272735393227e-01  8.7113799391960911e-01  8.7103282017777672e-01  8.7092732315776955e-01  8.7082142265110651e-01  8.7071532425906162e-01  8.7060893032810849e-01  8.7050210967900798e-01  8.7039486484523010e-01  8.7028744794791069e-01  8.7017976204203906e-01  8.7007167374232974e-01  8.6996347336714130e-01  8.6985486895613262e-01  8.6974613724662775e-01  8.6963718144316959e-01  8.6952781429584047e-01  8.6941805044587428e-01  8.6930819130250303e-01  8.6919813285925618e-01  8.6908773062618783e-01  8.6897724301478729e-01  8.6886634803694629e-01  8.6875533043160436e-01  8.6864409480077609e-01  8.6853232172703054e-01  8.6842044751502157e-01  8.6830836020650937e-01  8.6819592802048151e-01  8.6808312075935057e-01  8.6797015976838310e-01  8.6785693133760100e-01  8.6774347925982864e-01  8.6762978652464784e-01  8.6751605462019832e-01  8.6740216422247840e-01  8.6728794762188399e-01  8.6717392319074393e-01  8.6705997784452216e-01  8.6694562703491074e-01  8.6683138297043405e-01  8.6671714947095890e-01  8.6660259384504590e-01  8.6648803613774883e-01  8.6637318872678282e-01  8.6625827798949784e-01  8.6614319410644403e-01  8.6602783766812830e-01  8.6591221163463128e-01  8.6579663099374593e-01  8.6568098213671663e-01  8.6556482522511902e-01  8.6544872484767676e-01  8.6533258212709385e-01  8.6521627062242235e-01  8.6509980237107764e-01  8.6498355497091839e-01  8.6486720869154887e-01  8.6475099740679962e-01  8.6463481369099060e-01  8.6451833371899789e-01  8.6440150542376903e-01  8.6428430011944246e-01  8.6416659894767722e-01  8.6404825070846825e-01  8.6393001227011956e-01  8.6381178200567998e-01  8.6369359094674547e-01  8.6357560996626859e-01  8.6345757794763378e-01  8.6333944870781953e-01  8.6322133871946960e-01  8.6310314963236878e-01  8.6298465502933508e-01  8.6286613522640121e-01  8.6274748350727604e-01  8.6262865395082944e-01  8.6250966423780162e-01  8.6239071274462220e-01  8.6227169243563961e-01  8.6215234354205361e-01  8.6203303584608981e-01  8.6191367696161980e-01  8.6179400858082744e-01  8.6167450434620141e-01  8.6155489759365056e-01  8.6143554879033479e-01  8.6131633637255334e-01  8.6119714659283331e-01  8.6107806281047217e-01  8.6095870530021357e-01  8.6083932893537030e-01  8.6071966115640386e-01  8.6059981888928527e-01  8.6047967678581716e-01  8.6035936558950654e-01  8.6023891461096880e-01  8.6011844567559970e-01  8.5999812130820441e-01  8.5987768451479996e-01  8.5975716928903156e-01  8.5963686288841079e-01  8.5951664977482700e-01  8.5939626075626740e-01  8.5927608349589690e-01  8.5915601678578635e-01  8.5903593838253034e-01  8.5891585474871446e-01  8.5879601921175319e-01  8.5867632295151675e-01  8.5855653132747867e-01  8.5843676236772648e-01  8.5831657517791660e-01  8.5819587127436892e-01  8.5807488625520778e-01  8.5795351902346872e-01  8.5783165804815931e-01  8.5770938772126348e-01  8.5758723486000821e-01  8.5746484220839159e-01  8.5734264914678338e-01  8.5722055072852821e-01  8.5709840866538722e-01  8.5697622214288605e-01  8.5685416707196960e-01  8.5673214174718337e-01  8.5660988465307331e-01  8.5648777364158102e-01  8.5636569841063470e-01  8.5624363259788350e-01  8.5612159997379600e-01  8.5599984310897315e-01  8.5587825214869950e-01  8.5575646213322065e-01  8.5563492965128074e-01  8.5551356056813299e-01  8.5539203013563347e-01  8.5527091072603756e-01  8.5515010335121078e-01  8.5502903719448109e-01  8.5490837356562621e-01  8.5478799384269311e-01  8.5466747398043641e-01  8.5454671293199358e-01  8.5442588354365157e-01  8.5430488281574535e-01  8.5418345830795450e-01  8.5406197261057770e-01  8.5394029706739305e-01  8.5381851411920784e-01  8.5369674429316256e-01  8.5357474810480383e-01  8.5345256067453601e-01  8.5333046790178324e-01  8.5320834995403894e-01  8.5308571532243471e-01  8.5296317042765579e-01  8.5284061097694641e-01  8.5271790090044630e-01  8.5259505134577063e-01  8.5247245970189589e-01  8.5234978708606812e-01  8.5222724906514380e-01  8.5210473286213939e-01  8.5198181340568324e-01  8.5185848080846360e-01  8.5173503486719349e-01  8.5161135072866490e-01  8.5148710896066815e-01  8.5136305628994746e-01  8.5123882937314999e-01  8.5111485099692941e-01  8.5099101473640748e-01  8.5086712935084363e-01  8.5074317397427357e-01  8.5061929824008875e-01  8.5049539886567282e-01  8.5037122001159027e-01  8.5024708846957642e-01  8.5012289201243973e-01  8.4999858162626030e-01  8.4987416784782444e-01  8.4974985657966262e-01  8.4962553548654596e-01  8.4950089807769824e-01  8.4937632055593770e-01  8.4925170616761547e-01  8.4912677275601