<?xml version="1.0"?>
<VTKFile type="UnstructuredGrid"  version="0.1"  >
<UnstructuredGrid>
<Piece  NumberOfPoints="5161" NumberOfCells="8120">
<Points>
<DataArray  type="Float64"  NumberOfComponents="3"  format="ascii">0 0.01 0  0 0 0  0.01 0 0  0.02 0 0  0.03 0 0  0.04 0 0  0.05 0 0  0.06 0 0  0.07000000000000001 0 0  0.08 0 0  0.09 0 0  0.1 0 0  0.11 0 0  0.12 0 0  0.13 0 0  0.14 0 0  0.15 0 0  0.16 0 0  0.17 0 0  0.18 0 0  0.19 0 0  0.2 0 0  0.21 0 0  0.22 0 0  0.23 0 0  0.24 0 0  0.25 0 0  0.26 0 0  0.27 0 0  0.28 0 0  0.29 0 0  0.3 0 0  0.31 0 0  0.32 0 0  0.33 0 0  0.34 0 0  0.35 0 0  0.36 0 0  0.37 0 0  0.38 0 0  0.39 0 0  0.4 0 0  0.41 0 0  0.42 0 0  0.43 0 0  0.44 0 0  0.45 0 0  0.46 0 0  0.47 0 0  0.48 0 0  0.49 0 0  0.5 0 0  0.51 0 0  0.52 0 0  0.53 0 0  0.54 0 0  0.55 0 0  0.5600000000000001 0 0  0.57 0 0  0.58 0 0  0.59 0 0  0.6 0 0  0.61 0 0  0.62 0 0  0.63 0 0  0.64 0 0  0.65 0 0  0.66 0 0  0.67 0 0  0.68 0 0  0.6899999999999999 0 0  0.7 0 0  0.71 0 0  0.72 0 0  0.73 0 0  0.74 0 0  0.75 0 0  0.76 0 0  0.77 0 0  0.78 0 0  0.79 0 0  0.8 0 0  0.8100000000000001 0 0  0.82 0 0  0.83 0 0  0.84 0 0  0.85 0 0  0.86 0 0  0.87 0 0  0.88 0 0  0.89 0 0  0.9 0 0  0.91 0 0  0.92 0 0  0.93 0 0  0.9399999999999999 0 0  0.95 0 0  0.96 0 0  0.97 0 0  0.98 0 0  0.99 0 0  1 0 0  1.01 0 0  1.02 0 0  1.03 0 0  1.04 0 0  1.05 0 0  1.06 0 0  1.07 0 0  1.08 0 0  1.09 0 0  1.1 0 0  1.11 0 0  1.12 0 0  1.13 0 0  1.14 0 0  1.15 0 0  1.16 0 0  1.17 0 0  1.18 0 0  1.19 0 0  1.2 0 0  1.21 0 0  1.22 0 0  1.23 0 0  1.24 0 0  1.25 0 0  1.26 0 0  1.27 0 0  1.28 0 0  1.29 0 0  1.3 0 0  1.31 0 0  1.32 0 0  1.33 0 0  1.34 0 0  1.35 0 0  1.36 0 0  1.37 0 0  1.38 0 0  1.39 0 0  1.4 0 0  1.41 0 0  1.42 0 0  1.43 0 0  1.44 0 0  1.45 0 0  1.46 0 0  1.47 0 0  1.48 0 0  1.49 0 0  1.5 0 0  1.51 0 0  1.52 0 0  1.53 0 0  1.54 0 0  1.55 0 0  1.56 0 0  1.57 0 0  1.58 0 0  1.59 0 0  1.6 0 0  1.61 0 0  1.62 0 0  1.63 0 0  1.64 0 0  1.65 0 0  1.66 0 0  1.67 0 0  1.68 0 0  1.69 0 0  1.7 0 0  1.71 0 0  1.72 0 0  1.73 0 0  1.74 0 0  1.75 0 0  1.76 0 0  1.77 0 0  1.78 0 0  1.79 0 0  1.8 0 0  1.81 0 0  1.82 0 0  1.83 0 0  1.84 0 0  1.85 0 0  1.86 0 0  1.87 0 0  1.88 0 0  1.89 0 0  1.9 0 0  1.91 0 0  1.92 0 0  1.93 0 0  1.94 0 0  1.95 0 0  1.96 0 0  1.97 0 0  1.98 0 0  1.99 0 0  2 0 0  2.01 0 0  2.02 0 0  2.03 0 0  2.04 0 0  2.05 0 0  2.06 0 0  2.07 0 0  2.08 0 0  2.09 0 0  2.1 0 0  2.11 0 0  2.12 0 0  2.13 0 0  2.14 0 0  2.15 0 0  2.16 0 0  2.17 0 0  2.18 0 0  2.19 0 0  2.2 0 0  2.21 0 0  2.22 0 0  2.23 0 0  2.24 0 0  2.25 0 0  2.26 0 0  2.27 0 0  2.28 0 0  2.29 0 0  2.3 0 0  2.31 0 0  2.32 0 0  2.33 0 0  2.34 0 0  2.35 0 0  2.36 0 0  2.37 0 0  2.38 0 0  2.39 0 0  2.4 0 0  2.41 0 0  2.42 0 0  2.43 0 0  2.44 0 0  2.45 0 0  2.46 0 0  2.47 0 0  2.48 0 0  2.49 0 0  2.5 0 0  2.51 0 0  2.52 0 0  2.53 0 0  2.54 0 0  2.55 0 0  2.56 0 0  2.57 0 0  2.58 0 0  2.59 0 0  2.6 0 0  2.61 0 0  2.62 0 0  2.63 0 0  2.64 0 0  2.65 0 0  2.66 0 0  2.67 0 0  2.68 0 0  2.69 0 0  2.7 0 0  2.71 0 0  2.72 0 0  2.73 0 0  2.74 0 0  2.75 0 0  2.76 0 0  2.77 0 0  2.78 0 0  2.79 0 0  2.8 0 0  2.81 0 0  2.82 0 0  2.83 0 0  2.84 0 0  2.85 0 0  2.86 0 0  2.87 0 0  2.88 0 0  2.89 0 0  2.9 0 0  2.91 0 0  2.92 0 0  2.93 0 0  2.94 0 0  2.95 0 0  2.96 0 0  2.97 0 0  2.98 0 0  2.99 0 0  3 0 0  3.01 0 0  3.02 0 0  3.03 0 0  3.04 0 0  3.05 0 0  3.06 0 0  3.07 0 0  3.08 0 0  3.09 0 0  3.1 0 0  3.11 0 0  3.12 0 0  3.13 0 0  3.14 0 0  3.15 0 0  3.16 0 0  3.17 0 0  3.18 0 0  3.19 0 0  3.2 0 0  3.21 0 0  3.22 0 0  3.23 0 0  3.24 0 0  3.25 0 0  3.26 0 0  3.27 0 0  3.28 0 0  3.29 0 0  3.3 0 0  3.31 0 0  3.32 0 0  3.33 0 0  3.34 0 0  3.35 0 0  3.36 0 0  3.37 0 0  3.38 0 0  3.39 0 0  3.4 0 0  3.41 0 0  3.42 0 0  3.43 0 0  3.44 0 0  3.45 0 0  3.46 0 0  3.47 0 0  3.48 0 0  3.49 0 0  3.5 0 0  3.51 0 0  3.52 0 0  3.53 0 0  3.54 0 0  3.55 0 0  3.56 0 0  3.57 0 0  3.58 0 0  3.59 0 0  3.6 0 0  3.61 0 0  3.62 0 0  3.63 0 0  3.64 0 0  3.65 0 0  3.66 0 0  3.67 0 0  3.68 0 0  3.69 0 0  3.7 0 0  3.71 0 0  3.72 0 0  3.73 0 0  3.74 0 0  3.75 0 0  3.76 0 0  3.77 0 0  3.78 0 0  3.79 0 0  3.8 0 0  3.81 0 0  3.82 0 0  3.83 0 0  3.84 0 0  3.85 0 0  3.86 0 0  3.87 0 0  3.88 0 0  3.89 0 0  3.9 0 0  3.91 0 0  3.92 0 0  3.93 0 0  3.94 0 0  3.95 0 0  3.96 0 0  3.97 0 0  3.98 0 0  3.99 0 0  4 0 0  4.01 -0.03141463462364068 0  4.02 -0.06282151815625525 0  4.03 -0.09421290141928611 0  4.04 -0.1255810390586269 0  4.05 -0.1569181914556893 0  4.06 -0.1882166266370274 0  4.07 -0.2194686221820914 0  4.08 -0.2506664671286087 0  4.09 -0.2818024638751649 0  4.1 -0.3128689300804606 0  4.11 -0.34385820055882 0  4.12 -0.3747626291714495 0  4.13 -0.4055745907130247 0  4.14 -0.4362864827930841 0  4.15 -0.4668907277118119 0  4.16 -0.49737977432971 0  4.17 -0.5277460999307455 0  4.18 -0.5579822120784577 0  4.19 -0.588080650464609 0  4.2 -0.6180339887498953 0  4.21 -0.6478348363962988 0  4.22 -0.677475840490582 0  4.23 -0.7069496875585155 0  4.24 -0.7362491053693565 0  4.25 -0.7653668647301796 0  4.26 -0.7942957812695606 0  4.27 -0.8230287172102163 0  4.28 -0.851558583130146 0  4.29 -0.8798783397118303 0  4.3 -0.9079809994790931 0  4.31 -0.9358596285211457 0  4.32 -0.9635073482034314 0  4.33 -0.9909173368648152 0  4.34 -1.018082831500742 0  4.35 -1.044997129431897 0  4.36 -1.071653589957994 0  4.37 -1.098045635996264 0  4.38 -1.124166755704261 0  4.39 -1.150010504086556 0  4.4 -1.175570504584947 0  4.41 -1.200840450651768 0  4.42 -1.225814107305953 0  4.43 -1.250485312671409 0  4.44 -1.27484797949738 0  4.45 -1.298896096660368 0  4.46 -1.322623730647304 0  4.47 -1.346025027019546 0  4.48 -1.369094211857378 0  4.49 -1.391825593184629 0  4.5 -1.414213562373095 0  4.51 -1.436252595526377 0  4.52 -1.457937254842822 0  4.53 -1.47926218995722 0  4.54 -1.500222139260919 0  4.55 -1.520811931200061 0  4.56 -1.541026485551578 0  4.57 -1.56086081467666 0  4.58 -1.580310024751381 0  4.59 -1.599369316974181 0  4.6 -1.618033988749894 0  4.61 -1.636299434850047 0  4.62 -1.654161148549124 0  4.63 -1.67161472273654 0  4.64 -1.688655851004029 0  4.65 -1.705280328708185 0  4.66 -1.721484054007887 0  4.67 -1.737263028876382 0  4.68 -1.752613360087727 0  4.69 -1.767531260177387 0  4.7 -1.782013048376736 0  4.71 -1.796055151521231 0  4.72 -1.809654104932039 0  4.73 -1.822806553270891 0  4.74 -1.835509251367963 0  4.75 -1.847759065022573 0  4.76 -1.859552971776502 0  4.77 -1.870888061659734 0  4.78 -1.881761537908451 0  4.79 -1.892170717655091 0  4.8 -1.902113032590307 0  4.81 -1.91158602959666 0  4.82 -1.920587371353886 0  4.83 -1.929114836915596 0  4.84 -1.937166322257262 0  4.85 -1.944739840795353 0  4.86 -1.951833523877495 0  4.87 -1.958445621243532 0  4.88 -1.964574501457377 0  4.89 -1.970218652309548 0  4.9 -1.975376681190276 0  4.91 -1.980047315433115 0  4.92 -1.984229402628956 0  4.93 -1.987921910910359 0  4.94 -1.99112392920616 0  4.95 -1.993834667466256 0  4.96 -1.996053456856543 0  4.97 -1.99777974992394 0  4.98 -1.999013120731463 0  4.99 -1.999753264963321 0  5 -2 0  5.01 -1.999753264963321 0  5.02 -1.999013120731463 0  5.03 -1.99777974992394 0  5.04 -1.996053456856543 0  5.05 -1.993834667466256 0  5.06 -1.99112392920616 0  5.07 -1.987921910910359 0  5.08 -1.984229402628956 0  5.09 -1.980047315433115 0  5.1 -1.975376681190276 0  5.11 -1.970218652309548 0  5.12 -1.964574501457377 0  5.13 -1.958445621243532 0  5.14 -1.951833523877495 0  5.15 -1.944739840795353 0  5.16 -1.937166322257262 0  5.17 -1.929114836915596 0  5.18 -1.920587371353886 0  5.19 -1.91158602959666 0  5.2 -1.902113032590307 0  5.21 -1.892170717655091 0  5.22 -1.881761537908451 0  5.23 -1.870888061659734 0  5.24 -1.859552971776503 0  5.25 -1.847759065022573 0  5.26 -1.835509251367963 0  5.27 -1.822806553270891 0  5.28 -1.809654104932039 0  5.29 -1.796055151521231 0  5.3 -1.782013048376736 0  5.31 -1.767531260177387 0  5.32 -1.752613360087727 0  5.33 -1.737263028876382 0  5.34 -1.721484054007888 0  5.35 -1.705280328708185 0  5.36 -1.68865585100403 0  5.37 -1.67161472273654 0  5.38 -1.654161148549124 0  5.39 -1.636299434850047 0  5.4 -1.618033988749894 0  5.41 -1.599369316974181 0  5.42 -1.580310024751381 0  5.43 -1.56086081467666 0  5.44 -1.541026485551578 0  5.45 -1.520811931200061 0  5.46 -1.500222139260919 0  5.47 -1.47926218995722 0  5.48 -1.457937254842822 0  5.49 -1.436252595526377 0  5.5 -1.414213562373095 0  5.51 -1.39182559318463 0  5.52 -1.369094211857378 0  5.53 -1.346025027019547 0  5.54 -1.322623730647304 0  5.55 -1.298896096660368 0  5.56 -1.27484797949738 0  5.57 -1.25048531267141 0  5.58 -1.225814107305953 0  5.59 -1.200840450651769 0  5.6 -1.175570504584947 0  5.61 -1.150010504086557 0  5.62 -1.124166755704261 0  5.63 -1.098045635996264 0  5.64 -1.071653589957994 0  5.65 -1.044997129431897 0  5.66 -1.018082831500742 0  5.67 -0.9909173368648155 0  5.68 -0.9635073482034312 0  5.69 -0.935859628521146 0  5.7 -0.9079809994790929 0  5.71 -0.8798783397118306 0  5.72 -0.8515585831301458 0  5.73 -0.8230287172102166 0  5.74 -0.7942957812695605 0  5.75 -0.7653668647301798 0  5.76 -0.7362491053693571 0  5.77 -0.7069496875585156 0  5.78 -0.6774758404905826 0  5.79 -0.6478348363962989 0  5.8 -0.6180339887498959 0  5.81 -0.5880806504646091 0  5.82 -0.5579822120784582 0  5.83 -0.5277460999307456 0  5.84 -0.4973797743297105 0  5.85 -0.4668907277118119 0  5.86 -0.4362864827930846 0  5.87 -0.4055745907130247 0  5.88 -0.37476262917145 0  5.89 -0.34385820055882 0  5.9 -0.3128689300804611 0  5.91 -0.2818024638751648 0  5.92 -0.2506664671286091 0  5.93 -0.2194686221820913 0  5.94 -0.1882166266370278 0  5.95 -0.1569181914556892 0  5.96 -0.1255810390586272 0  5.97 -0.09421290141928591 0  5.98 -0.06282151815625558 0  5.99 -0.03141463462364053 0  6 -2.449293598294706e-16 0  6.01 0 0  6.02 0 0  6.03 0 0  6.04 0 0  6.05 0 0  6.06 0 0  6.07 0 0  6.08 0 0  6.09 0 0  6.1 0 0  6.11 0 0  6.12 0 0  6.13 0 0  6.14 0 0  6.15 0 0  6.16 0 0  6.17 0 0  6.18 0 0  6.19 0 0  6.2 0 0  6.21 0 0  6.22 0 0  6.23 0 0  6.24 0 0  6.25 0 0  6.26 0 0  6.27 0 0  6.28 0 0  6.29 0 0  6.3 0 0  6.31 0 0  6.32 0 0  6.33 0 0  6.34 0
[...]
<PointData  Scalars="f_2692"> 
<DataArray  type="Float64"  Name="f_2692"  format="ascii">1.0000000000000000e+00  1.0000000000000000e+00  9.9738185142204439e-01  9.9543652874665067e-01  9.9376551099356647e-01  9.9229264843599463e-01  9.9101675067285688e-01  9.8984360727952936e-01  9.8875874044159595e-01  9.8775253046696643e-01  9.8682399385882758e-01  9.8594434666119035e-01  9.8511417446389515e-01  9.8432349883645709e-01  9.8356918338441746e-01  9.8285026826771338e-01  9.8216604127207963e-01  9.8150402908362555e-01  9.8086320886148470e-01  9.8024524697182569e-01  9.7964955600805037e-01  9.7907264968030649e-01  9.7851490885295533e-01  9.7797693782184802e-01  9.7745829686246999e-01  9.7694818116919668e-01  9.7645353839638560e-01  9.7597392318862564e-01  9.7550502854403087e-01  9.7504624360598902e-01  9.7459878985951887e-01  9.7416225473301921e-01  9.7373443789711833e-01  9.7331500268886106e-01  9.7290509725189989e-01  9.7250433164374162e-01  9.7210714755637451e-01  9.7171918579118366e-01  9.7133923382147724e-01  9.7096697708719226e-01  9.7060119809146561e-01  9.7024165552418762e-01  9.6988798246810759e-01  9.6953790813983087e-01  9.6919127753494783e-01  9.6884969441301549e-01  9.6851283478749428e-01  9.6818074549725797e-01  9.6785399453954690e-01  9.6753244911526948e-01  9.6721597631508827e-01  9.6690524861308336e-01  9.6659999107911931e-01  9.6629678624770909e-01  9.6599780501034738e-01  9.6570212742954908e-01  9.6541057903163552e-01  9.6512290372711451e-01  9.6483781233178878e-01  9.6455520381832893e-01  9.6427674513902972e-01  9.6400216016172369e-01  9.6373048917109883e-01  9.6346163590783918e-01  9.6319601754664963e-01  9.6293340959716889e-01  9.6267173165615350e-01  9.6241294896250729e-01  9.6215680481852495e-01  9.6190269241034621e-01  9.6165069711143936e-01  9.6140137466361875e-01  9.6115450756305443e-01  9.6090975122539235e-01  9.6066739158725722e-01  9.6042682073774499e-01  9.6018798073463441e-01  9.5995138432294247e-01  9.5971643292160502e-01  9.5948400224021224e-01  9.5925386628508469e-01  9.5902531664461754e-01  9.5879875222304645e-01  9.5857283711679941e-01  9.5834907023661020e-01  9.5812724551156747e-01  9.5790738040622114e-01  9.5768947752625921e-01  9.5747392345167226e-01  9.5726013023351075e-01  9.5704840111362421e-01  9.5683852751806975e-01  9.5662983640920185e-01  9.5642265978384522e-01  9.5621589493958459e-01  9.5601075980514505e-01  9.5580706302582341e-01  9.5560436261803694e-01  9.5540260628200502e-01  9.5520226929286112e-01  9.5500316845903732e-01  9.5480424052642798e-01  9.5460643907224696e-01  9.5440918415772680e-01  9.5421303807338065e-01  9.5401783402164619e-01  9.5382299214215671e-01  9.5362853907673106e-01  9.5343529474461630e-01  9.5324308004466451e-01  9.5305104591005441e-01  9.5286029288782925e-01  9.5267025091361179e-01  9.5248131715257844e-01  9.5229333083699252e-01  9.5210551894327566e-01  9.5191885455447400e-01  9.5173315905454503e-01  9.5154796073348813e-01  9.5136339712855134e-01  9.5118014791481398e-01  9.5099769195598327e-01  9.5081600381388864e-01  9.5063489541368451e-01  9.5045431705927075e-01  9.5027432115390265e-01  9.5009475053197134e-01  9.4991592017005622e-01  9.4973724216838584e-01  9.4955984025308571e-01  9.4938329728815063e-01  9.4920818054493750e-01  9.4903431249248849e-01  9.4886124209707345e-01  9.4868922421849000e-01  9.4851730556159175e-01  9.4834622047382722e-01  9.4817550404582551e-01  9.4800559054070122e-01  9.4783631854894801e-01  9.4766752081205397e-01  9.4749942021481792e-01  9.4733183127824616e-01  9.4716476861643306e-01  9.4699864889570795e-01  9.4683333363067523e-01  9.4666802603002354e-01  9.4650340988068515e-01  9.4633905960885334e-01  9.4617536490018594e-01  9.4601216423037293e-01  9.4584912369676200e-01  9.4568612720084644e-01  9.4552360886503029e-01  9.4536142982835447e-01  9.4519931037525429e-01  9.4503754347097713e-01  9.4487565264937556e-01  9.4471440793246786e-01  9.4455366862820245e-01  9.4439323413368048e-01  9.4423313505558470e-01  9.4407372142280110e-01  9.4391486062880792e-01  9.4375600822200156e-01  9.4359790145718925e-01  9.4344016867750424e-01  9.4328324407136921e-01  9.4312696830234821e-01  9.4297126896085282e-01  9.4281609913313036e-01  9.4266153960081245e-01  9.4250742741836280e-01  9.4235343260090643e-01  9.4220017868901695e-01  9.4204752755723953e-01  9.4189512934107511e-01  9.4174295710919986e-01  9.4159144295713593e-01  9.4144044708393937e-01  9.4128936815225694e-01  9.4113881030022883e-01  9.4098836641452632e-01  9.4083819991824702e-01  9.4068816084383733e-01  9.4053765097239872e-01  9.4038750889390599e-01  9.4023760397976042e-01  9.4008783867499424e-01  9.3993839406095592e-01  9.3978898641798869e-01  9.3963962537766255e-01  9.3949061957436331e-01  9.3934181469192357e-01  9.3919271864136211e-01  9.3904405542394398e-01  9.3889569813753160e-01  9.3874753299293823e-01  9.3859981309174167e-01  9.3845206152558791e-01  9.3830497910403476e-01  9.3815843046191516e-01  9.3801180636316117e-01  9.3786503421764422e-01  9.3771831363521241e-01  9.3757149623772384e-01  9.3742425291963904e-01  9.3727751954990390e-01  9.3713117041186078e-01  9.3698515833924279e-01  9.3683969383732291e-01  9.3669446743552764e-01  9.3654943911600419e-01  9.3640479143198863e-01  9.3626014524190182e-01  9.3611577561328863e-01  9.3597154570442676e-01  9.3582738226713369e-01  9.3568347567727150e-01  9.3553970344699466e-01  9.3539607738235764e-01  9.3525286097799809e-01  9.3510971036582358e-01  9.3496667056331184e-01  9.3482359019323269e-01  9.3468005891547756e-01  9.3453654992046553e-01  9.3439294099781356e-01  9.3424913702182699e-01  9.3410528276344151e-01  9.3396205807364829e-01  9.3381932227396713e-01  9.3367635824834205e-01  9.3353406820378704e-01  9.3339233607315841e-01  9.3325049821721362e-01  9.3310906425938078e-01  9.3296765570743867e-01  9.3282655197137232e-01  9.3268561852419707e-01  9.3254465479395232e-01  9.3240364824905375e-01  9.3226296890648841e-01  9.3212247869985465e-01  9.3198153470294487e-01  9.3184092076657621e-01  9.3170051740448956e-01  9.3156015948127990e-01  9.3141985413871331e-01  9.3128007081315023e-01  9.3114042582429579e-01  9.3100119588962038e-01  9.3086225253607757e-01  9.3072318054693692e-01  9.3058390338492647e-01  9.3044438809153773e-01  9.3030449333617371e-01  9.3016398240122300e-01  9.3002382686953322e-01  9.2988390651274333e-01  9.2974423570648124e-01  9.2960501657618444e-01  9.2946586958075050e-01  9.2932677719695034e-01  9.2918801849001276e-01  9.2904945954222740e-01  9.2891100744126387e-01  9.2877275532524950e-01  9.2863455292287611e-01  9.2849637064632107e-01  9.2835839105965745e-01  9.2822048851019956e-01  9.2808228553471739e-01  9.2794421013721629e-01  9.2780615455010684e-01  9.2766779938170163e-01  9.2752967694828137e-01  9.2739149239863672e-01  9.2725371595575412e-01  9.2711620400121875e-01  9.2697887254866507e-01  9.2684180668208815e-01  9.2670456164383774e-01  9.2656759135926214e-01  9.2643055786739570e-01  9.2629359084953100e-01  9.2615654740590403e-01  9.2601956674397889e-01  9.2588268336224089e-01  9.2574596253818497e-01  9.2560959713322910e-01  9.2547316400084423e-01  9.2533665774930673e-01  9.2520037856331516e-01  9.2506419590272371e-01  9.2492780439705968e-01  9.2479162677391624e-01  9.2465554824793394e-01  9.2451947491665643e-01  9.2438347088519190e-01  9.2424812648934185e-01  9.2411305289072043e-01  9.2397858640517594e-01  9.2384460826401071e-01  9.2371060161820495e-01  9.2357698715818193e-01  9.2344363701504761e-01  9.2331023758038611e-01  9.2317676715063846e-01  9.2304347694792466e-01  9.2291024826642221e-01  9.2277701539940393e-01  9.2264392263583839e-01  9.2251069645938999e-01  9.2237791310499795e-01  9.2224543526158897e-01  9.2211309606195824e-01  9.2198112488009198e-01  9.2184908231676710e-01  9.2171755718338499e-01  9.2158643284830866e-01  9.2145505450846710e-01  9.2132395395356592e-01  9.2119299958426781e-01  9.2106236188503554e-01  9.2093229147927325e-01  9.2080227893626343e-01  9.2067294999237759e-01  9.2054418273695215e-01  9.2041582179346282e-01  9.2028787700082015e-01  9.2016079364206360e-01  9.2003445506124593e-01  9.1990862949182817e-01  9.1978356332068489e-01  9.1965866302606258e-01  9.1953464979779220e-01  9.1941116231089182e-01  9.1928833107559293e-01  9.1916603495689786e-01  9.1904387093003381e-01  9.1892198872110620e-01  9.1880009988524192e-01  9.1867891512379951e-01  9.1855832671524285e-01  9.1843823651492096e-01  9.1831870802760152e-01  9.1820012089445402e-01  9.1808236994452952e-01  9.1796532972788092e-01  9.1784912578726408e-01  9.1773348709839953e-01  9.1761842684486472e-01  9.1750448936772611e-01  9.1739157405426719e-01  9.1727944070289336e-01  9.1716807772227138e-01  9.1705785583448529e-01  9.1694847325695095e-01  9.1684022391191444e-01  9.1673300936847235e-01  9.1662672212932605e-01  9.1652133456228435e-01  9.1641701199516079e-01  9.1631365642027640e-01  9.1621055839330012e-01  9.1610830656884601e-01  9.1600661812409856e-01  9.1590577312338006e-01  9.1580567111663769e-01  9.1570611357660581e-01  9.1560704447860486e-01  9.1550856289526628e-01  9.1541040139019536e-01  9.1531254234784032e-01  9.1521488616631719e-01  9.1511708203286102e-01  9.1501919159991696e-01  9.1492087692264656e-01  9.1482223703461196e-01  9.1472271243631642e-01  9.1462204953889981e-01  9.1451952499601197e-01  9.1441504226002523e-01  9.1430766196170532e-01  9.1419726188175021e-01  9.1408223827886104e-01  9.1396246982996843e-01  9.1383639621986790e-01  9.1370347345115799e-01  9.1356080239245074e-01  9.1340822654534060e-01  9.1324213259496168e-01  9.1306257507517574e-01  9.1286510386254960e-01  9.1264298567340529e-01  9.1237238967464696e-01  9.1205299487645008e-01  9.1167798833962665e-01  9.1116604715198091e-01  9.1048982304663495e-01  9.0936913707971445e-01  9.0329311495398534e-01  8.9786311246663919e-01  8.9287538505794517e-01  8.8797181554315796e-01  8.8313252258527886e-01  8.7834440303718930e-01  8.7354170437344936e-01  8.6874126816417996e-01  8.6392977420552974e-01  8.5909791428485716e-01  8.5425074967944481e-01  8.4941289200686998e-01  8.4456746701055019e-01  8.3971951135840717e-01  8.3486998635363374e-01  8.3005188761559034e-01  8.2524535385507924e-01  8.2046840411049349e-01  8.1571663089563162e-01  8.1101935926218716e-01  8.0635907022819031e-01  8.0173767677545338e-01  7.9718746033449561e-01  7.9268878074095717e-01  7.8824683911003712e-01  7.8387321838057789e-01  7.7958555304392863e-01  7.7536930430488549e-01  7.7124525052692361e-01  7.6719061424102553e-01  7.6320634653464503e-01  7.5931841763735264e-01  7.5550811248886685e-01  7.5178126772171172e-01  7.4813697695511128e-01  7.4459113771898600e-01  7.4112520585229469e-01  7.3774047956637023e-01  7.3443685493574251e-01  7.3122868884896741e-01  7.2809718444869875e-01  7.2506264633136275e-01  7.2210616368570724e-01  7.1922238226994151e-01  7.1643363275735328e-01  7.1371925492465771e-01  7.1108782406032500e-01  7.0853393921066166e-01  7.0606806840096314e-01  7.0367227271463462e-01  7.0135361997722256e-01  6.9910402929195137e-01  6.9693991577844761e-01  6.9484248497057499e-01  6.9281560491451921e-01  6.9085547601790831e-01  6.8897656688837838e-01  6.8716137090228546e-01  6.8540421712277388e-01  6.8372132986047152e-01  6.8209683507688401e-01  6.8052941350697460e-01  6.7903504255108227e-01  6.7759605243033505e-01  6.7621765930166400e-01  6.7489914976008758e-01  6.7364738666972701e-01  6.7244456242696615e-01  6.7128936642595971e-01  6.7019245275206807e-01  6.6914288616432116e-01  6.6815390329515700e-01  6.6720680442311697e-01  6.6631126779848349e-01  6.6545992800798581e-01  6.6465991183853301e-01  6.6390092301750014e-01  6.6319463310271476e-01  6.6252361282030070e-01  6.6189794516499945e-01  6.6130711431303324e-01  6.6075609261867529e-01  6.6024873301462728e-01  6.5977051629270411e-01  6.5933005809300893e-01  6.5892371220947155e-01  6.5855697541142588e-01  6.5821741926702504e-01  6.5790934518552258e-01  6.5763358362914170e-01  6.5738546728147007e-01  6.5716947826457628e-01  6.5697645051207065e-01  6.5681273459403922e-01  6.5667096991915119e-01  6.5655459392265691e-01  6.5646254868310605e-01  6.5639576231703212e-01  6.5635094926212623e-01  6.5633300339956213e-01  6.5633790309863749e-01  6.5636584208983328e-01  6.5641703314270283e-01  6.5649223774535703e-01  6.5658813398687965e-01  6.5670910542024941e-01  6.5685842596223676e-01  6.5703099937404918e-01  6.5723211347551058e-01  6.5745604532329138e-01  6.5771192448359794e-01  6.5799441624049482e-01  6.5831032601273964e-01  6.5865657816083356e-01  6.5903635347262068e-01  6.5944214506864651e-01  6.5988596822735202e-01  6.6035792447732999e-01  6.6087086650737459e-01  6.6141834716285985e-01  6.6200679247500860e-01  6.6263178246939358e-01  6.6329048265797685e-01  6.6399742509039095e-01  6.6474486891619744e-01  6.6553724417935167e-01  6.6636463103743970e-01  6.6724241468218803e-01  6.6816222115920010e-01  6.6912054194768045e-01  6.7013212976572900e-01  6.7118423189651255e-01  6.7229186406831887e-01  6.7344907156372180e-01  6.7465515303820200e-01  6.7590471805423813e-01  6.7721356618196260e-01  6.7856986018718046e-01  6.7997060635882445e-01  6.8142657907542659e-01  6.8292748382898683e-01  6.8448935820302603e-01  6.8609809998928339e-01  6.8776414285888632e-01  6.8948174934866335e-01  6.9125181453141415e-01  6.9306641915092071e-01  6.9494060870749175e-01  6.9686200184011848e-01  6.9882680285991394e-01  7.0084536769427108e-01  7.0290640640551738e-01  7.0502445019275162e-01  7.0718442242077884e-01  7.0939168436750311e-01  7.1163589853058284e-01  7.1393407714597135e-01  7.1627056560269498e-01  7.1865431602173158e-01  7.2107597794157763e-01  7.2353043556559271e-01  7.2602734845601358e-01  7.2855456759256043e-01  7.3112547313574072e-01  7.3372937758628931e-01  7.3636288100993330e-01  7.3901774190832026e-01  7.4170864259429981e-01  7.4441602820556163e-01  7.4715509190867702e-01  7.4990787079700361e-01  7.5268930094156761e-01  7.5548597829145980e-01  7.5830328940378566e-01  7.6113846257048012e-01  7.6398144867189022e-01  7.6684430714040863e-01  7.6971427748705323e-01  7.7260434359517627e-01  7.7550457498159275e-01  7.7841870685249115e-01  7.8133643158643307e-01  7.8426988752786853e-01  7.8722327794078040e-01  7.9018732945264214e-01  7.9317512644820987e-01  7.9617829480895852e-01  7.9920806603571604e-01  8.0226968979481883e-01  8.0535931766335522e-01  8.0849319765579808e-01  8.1167978556270470e-01  8.1493179489107026e-01  8.1827539681611083e-01  8.2173864664152763e-01  8.2533373173210034e-01  8.2912367156154110e-01  8.3323233818150100e-01  8.3793571133401457e-01  8.4326086904625019e-01  8.4423229339977024e-01  8.4498204229070439e-01  8.4550998476197825e-01  8.4594049080273459e-01  8.4630107474924887e-01  8.4661361108878475e-01  8.4687827630996892e-01  8.4712210421086409e-01  8.4733830105416763e-01  8.4752702724641393e-01  8.4770463276882524e-01  8.4786510881721333e-01  8.4800859210171897e-01  8.4813991202561290e-01  8.4826015834841284e-01  8.4837207475493337e-01  8.4847576559923399e-01  8.4857245203329246e-01  8.4866205493714542e-01  8.4874502999364043e-01  8.4882145217843896e-01  8.4889143915187637e-01  8.4895505607930899e-01  8.4901344218907238e-01  8.4906679894562143e-01  8.4911513920971371e-01  8.4915851020484756e-01  8.4919834988449627e-01  8.4923340813969284e-01  8.4926371613586626e-01  8.4929128385727815e-01  8.4931504175045636e-01  8.4933500614125046e-01  8.4935178813401613e-01  8.4936535713280392e-01  8.4937658070936961e-01  8.4938488566020309e-01  8.4939027863105809e-01  8.4939293153156303e-01  8.4939266000741265e-01  8.4939057062146428e-01  8.4938584198355749e-01  8.4937846739504963e-01  8.4936869641479185e-01  8.4935643930811866e-01  8.4934186713398141e-01  8.4932496444681838e-01  8.4930589561593894e-01  8.4928467312357814e-01  8.4926167389409934e-01  8.4923684134769695e-01  8.4921014041921739e-01  8.4918154675752566e-01  8.4915137996777468e-01  8.4911967206021055e-01  8.4908630043283384e-01  8.4905116498345312e-01  8.4901437686509873e-01  8.4897590266539713e-01  8.4893596115068115e-01  8.4889456448713763e-01  8.4885174712526967e-01  8.4880747173176541e-01  8.4876228240396145e-01  8.4871571888879127e-01  8.4866773775203497e-01  8.4861841787058956e-01  8.4856776604089212e-01  8.4851583287039434e-01  8.4846257015526050e-01  8.4840846768697453e-01  8.4835332730899427e-01  8.4829701013479208e-01  8.4823956412703538e-01  8.4818093747126821e-01  8.4812118587606522e-01  8.4806039106224995e-01  8.4799857232505660e-01  8.4793566749487748e-01  8.4787180523449523e-01  8.4780693869288204e-01  8.4774101206586561e-01  8.4767431810402394e-01  8.4760681556986939e-01  8.4753837007367971e-01  8.4746898976650120e-01  8.4739860664607258e-01  8.4732725580575108e-01  8.4725498544823352e-01  8.4718199182757847e-01  8.4710810126824199e-01  8.4703339672434308e-01  8.4695780016679734e-01  8.4688140976545534e-01  8.4680421245313964e-01  8.4672638399362465e-01  8.4664784477141142e-01  8.4656859622472869e-01  8.4648869259859938e-01  8.4640818626920733e-01  8.4632701448455205e-01  8.4624504237396991e-01  8.4616252417065285e-01  8.4607937875346140e-01  8.4599552151780832e-01  8.4591122641064720e-01  8.4582624814958463e-01  8.4574083901189523e-01  8.4565492511607532e-01  8.4556839382745086e-01  8.4548131188871378e-01  8.4539382149070741e-01  8.4530583683327409e-01  8.4521718355040354e-01  8.4512809322537408e-01  8.4503849004141307e-01  8.4494825744712054e-01  8.4485739343160360e-01  8.4476611099274346e-01  8.4467413855264617e-01  8.4458164740839659e-01  8.4448855656110655e-01  8.4439470908287917e-01  8.4430032439357472e-01  8.4420530777196767e-01  8.4410969861266516e-01  8.4401349096857081e-01  8.4391696172951891e-01  8.4382001694897790e-01  8.4372260118413789e-01  8.4362471378813031e-01  8.4352665044133734e-01  8.4342831439276955e-01  8.4332974536825267e-01  8.4323094938312915e-01  8.4313200563767399e-01  8.4303280971576677e-01  8.4293320443889519e-01  8.4283346401583592e-01  8.4273349868425540e-01  8.4263315394721439e-01  8.4253242620507318e-01  8.4243159209888041e-01  8.4233055891220876e-01  8.4222918468280250e-01  8.4212763419759840e-01  8.4202582228493106e-01  8.4192362613614691e-01  8.4182105797607498e-01  8.4171829364584383e-01  8.4161524285019340e-01  8.4151174403041262e-01  8.4140802400306236e-01  8.4130400358084534e-01  8.4119951147934469e-01  8.4109483018454856e-01  8.4098972848976050e-01  8.4088445147795543e-01  8.4077889445570519e-01  8.4067287074265606e-01  8.4056649110859916e-01  8.4045969295116607e-01  8.4035281073243795e-01  8.4024575388178446e-01  8.4013850863414385e-01  8.4003106063393795e-01  8.3992357245758387e-01  8.3981595307075541e-01  8.3970800679454705e-01  8.3959987861458740e-01  8.3949131827663936e-01  8.3938254715336336e-01  8.3927345427192390e-01  8.3916413090249076e-01  8.3905469965961055e-01  8.3894513862026232e-01  8.3883563373616610e-01  8.3872593815027141e-01  8.3861642313650830e-01  8.3850698709705451e-01  8.3839741836639803e-01  8.3828768134366893e-01  8.3817800962300049e-01  8.3806830386796427e-01  8.3795829803767130e-01  8.3784818848732090e-01  8.3773785878729823e-01  8.3762732753159463e-01  8.3751654640979156e-01  8.3740555503704761e-01  8.3729424066319036e-01  8.3718256067436936e-01  8.3707061086057100e-01  8.3695840722536452e-01  8.3684607591594939e-01  8.3673335155360129e-01  8.3662079876457907e-01  8.3650830508999230e-01  8.3639551821334068e-01  8.3628269556260115e-01  8.3616971847107424e-01  8.3605653619965348e-01  8.3594325744807185e-01  8.3582951219347978e-01  8.3571527083614405e-01  8.3560089148570549e-01  8.3548627600406622e-01  8.3537130562984452e-01  8.3525598003186174e-01  8.3514051169957093e-01  8.3502478798189639e-01  8.3490875605126202e-01  8.3479234159144633e-01  8.3467585950001733e-01  8.3455920991354049e-01  8.3444210861813839e-01  8.3432498424406387e-01  8.3420771537501137e-01  8.3409021209347656e-01  8.3397242882203904e-01  8.3385461489791546e-01  8.3373666780796873e-01  8.3361837341057776e-01  8.3349987488489019e-01  8.3338073951567171e-01  8.3326136086768887e-01  8.3314161946852328e-01  8.3302149927963