<?xml version="1.0"?>
<VTKFile type="UnstructuredGrid"  version="0.1"  >
<UnstructuredGrid>
<Piece  NumberOfPoints="5161" NumberOfCells="8120">
<Points>
<DataArray  type="Float64"  NumberOfComponents="3"  format="ascii">0 0.01 0  0 0 0  0.01 0 0  0.02 0 0  0.03 0 0  0.04 0 0  0.05 0 0  0.06 0 0  0.07000000000000001 0 0  0.08 0 0  0.09 0 0  0.1 0 0  0.11 0 0  0.12 0 0  0.13 0 0  0.14 0 0  0.15 0 0  0.16 0 0  0.17 0 0  0.18 0 0  0.19 0 0  0.2 0 0  0.21 0 0  0.22 0 0  0.23 0 0  0.24 0 0  0.25 0 0  0.26 0 0  0.27 0 0  0.28 0 0  0.29 0 0  0.3 0 0  0.31 0 0  0.32 0 0  0.33 0 0  0.34 0 0  0.35 0 0  0.36 0 0  0.37 0 0  0.38 0 0  0.39 0 0  0.4 0 0  0.41 0 0  0.42 0 0  0.43 0 0  0.44 0 0  0.45 0 0  0.46 0 0  0.47 0 0  0.48 0 0  0.49 0 0  0.5 0 0  0.51 0 0  0.52 0 0  0.53 0 0  0.54 0 0  0.55 0 0  0.5600000000000001 0 0  0.57 0 0  0.58 0 0  0.59 0 0  0.6 0 0  0.61 0 0  0.62 0 0  0.63 0 0  0.64 0 0  0.65 0 0  0.66 0 0  0.67 0 0  0.68 0 0  0.6899999999999999 0 0  0.7 0 0  0.71 0 0  0.72 0 0  0.73 0 0  0.74 0 0  0.75 0 0  0.76 0 0  0.77 0 0  0.78 0 0  0.79 0 0  0.8 0 0  0.8100000000000001 0 0  0.82 0 0  0.83 0 0  0.84 0 0  0.85 0 0  0.86 0 0  0.87 0 0  0.88 0 0  0.89 0 0  0.9 0 0  0.91 0 0  0.92 0 0  0.93 0 0  0.9399999999999999 0 0  0.95 0 0  0.96 0 0  0.97 0 0  0.98 0 0  0.99 0 0  1 0 0  1.01 0 0  1.02 0 0  1.03 0 0  1.04 0 0  1.05 0 0  1.06 0 0  1.07 0 0  1.08 0 0  1.09 0 0  1.1 0 0  1.11 0 0  1.12 0 0  1.13 0 0  1.14 0 0  1.15 0 0  1.16 0 0  1.17 0 0  1.18 0 0  1.19 0 0  1.2 0 0  1.21 0 0  1.22 0 0  1.23 0 0  1.24 0 0  1.25 0 0  1.26 0 0  1.27 0 0  1.28 0 0  1.29 0 0  1.3 0 0  1.31 0 0  1.32 0 0  1.33 0 0  1.34 0 0  1.35 0 0  1.36 0 0  1.37 0 0  1.38 0 0  1.39 0 0  1.4 0 0  1.41 0 0  1.42 0 0  1.43 0 0  1.44 0 0  1.45 0 0  1.46 0 0  1.47 0 0  1.48 0 0  1.49 0 0  1.5 0 0  1.51 0 0  1.52 0 0  1.53 0 0  1.54 0 0  1.55 0 0  1.56 0 0  1.57 0 0  1.58 0 0  1.59 0 0  1.6 0 0  1.61 0 0  1.62 0 0  1.63 0 0  1.64 0 0  1.65 0 0  1.66 0 0  1.67 0 0  1.68 0 0  1.69 0 0  1.7 0 0  1.71 0 0  1.72 0 0  1.73 0 0  1.74 0 0  1.75 0 0  1.76 0 0  1.77 0 0  1.78 0 0  1.79 0 0  1.8 0 0  1.81 0 0  1.82 0 0  1.83 0 0  1.84 0 0  1.85 0 0  1.86 0 0  1.87 0 0  1.88 0 0  1.89 0 0  1.9 0 0  1.91 0 0  1.92 0 0  1.93 0 0  1.94 0 0  1.95 0 0  1.96 0 0  1.97 0 0  1.98 0 0  1.99 0 0  2 0 0  2.01 0 0  2.02 0 0  2.03 0 0  2.04 0 0  2.05 0 0  2.06 0 0  2.07 0 0  2.08 0 0  2.09 0 0  2.1 0 0  2.11 0 0  2.12 0 0  2.13 0 0  2.14 0 0  2.15 0 0  2.16 0 0  2.17 0 0  2.18 0 0  2.19 0 0  2.2 0 0  2.21 0 0  2.22 0 0  2.23 0 0  2.24 0 0  2.25 0 0  2.26 0 0  2.27 0 0  2.28 0 0  2.29 0 0  2.3 0 0  2.31 0 0  2.32 0 0  2.33 0 0  2.34 0 0  2.35 0 0  2.36 0 0  2.37 0 0  2.38 0 0  2.39 0 0  2.4 0 0  2.41 0 0  2.42 0 0  2.43 0 0  2.44 0 0  2.45 0 0  2.46 0 0  2.47 0 0  2.48 0 0  2.49 0 0  2.5 0 0  2.51 0 0  2.52 0 0  2.53 0 0  2.54 0 0  2.55 0 0  2.56 0 0  2.57 0 0  2.58 0 0  2.59 0 0  2.6 0 0  2.61 0 0  2.62 0 0  2.63 0 0  2.64 0 0  2.65 0 0  2.66 0 0  2.67 0 0  2.68 0 0  2.69 0 0  2.7 0 0  2.71 0 0  2.72 0 0  2.73 0 0  2.74 0 0  2.75 0 0  2.76 0 0  2.77 0 0  2.78 0 0  2.79 0 0  2.8 0 0  2.81 0 0  2.82 0 0  2.83 0 0  2.84 0 0  2.85 0 0  2.86 0 0  2.87 0 0  2.88 0 0  2.89 0 0  2.9 0 0  2.91 0 0  2.92 0 0  2.93 0 0  2.94 0 0  2.95 0 0  2.96 0 0  2.97 0 0  2.98 0 0  2.99 0 0  3 0 0  3.01 0 0  3.02 0 0  3.03 0 0  3.04 0 0  3.05 0 0  3.06 0 0  3.07 0 0  3.08 0 0  3.09 0 0  3.1 0 0  3.11 0 0  3.12 0 0  3.13 0 0  3.14 0 0  3.15 0 0  3.16 0 0  3.17 0 0  3.18 0 0  3.19 0 0  3.2 0 0  3.21 0 0  3.22 0 0  3.23 0 0  3.24 0 0  3.25 0 0  3.26 0 0  3.27 0 0  3.28 0 0  3.29 0 0  3.3 0 0  3.31 0 0  3.32 0 0  3.33 0 0  3.34 0 0  3.35 0 0  3.36 0 0  3.37 0 0  3.38 0 0  3.39 0 0  3.4 0 0  3.41 0 0  3.42 0 0  3.43 0 0  3.44 0 0  3.45 0 0  3.46 0 0  3.47 0 0  3.48 0 0  3.49 0 0  3.5 0 0  3.51 0 0  3.52 0 0  3.53 0 0  3.54 0 0  3.55 0 0  3.56 0 0  3.57 0 0  3.58 0 0  3.59 0 0  3.6 0 0  3.61 0 0  3.62 0 0  3.63 0 0  3.64 0 0  3.65 0 0  3.66 0 0  3.67 0 0  3.68 0 0  3.69 0 0  3.7 0 0  3.71 0 0  3.72 0 0  3.73 0 0  3.74 0 0  3.75 0 0  3.76 0 0  3.77 0 0  3.78 0 0  3.79 0 0  3.8 0 0  3.81 0 0  3.82 0 0  3.83 0 0  3.84 0 0  3.85 0 0  3.86 0 0  3.87 0 0  3.88 0 0  3.89 0 0  3.9 0 0  3.91 0 0  3.92 0 0  3.93 0 0  3.94 0 0  3.95 0 0  3.96 0 0  3.97 0 0  3.98 0 0  3.99 0 0  4 0 0  4.01 -0.03141463462364068 0  4.02 -0.06282151815625525 0  4.03 -0.09421290141928611 0  4.04 -0.1255810390586269 0  4.05 -0.1569181914556893 0  4.06 -0.1882166266370274 0  4.07 -0.2194686221820914 0  4.08 -0.2506664671286087 0  4.09 -0.2818024638751649 0  4.1 -0.3128689300804606 0  4.11 -0.34385820055882 0  4.12 -0.3747626291714495 0  4.13 -0.4055745907130247 0  4.14 -0.4362864827930841 0  4.15 -0.4668907277118119 0  4.16 -0.49737977432971 0  4.17 -0.5277460999307455 0  4.18 -0.5579822120784577 0  4.19 -0.588080650464609 0  4.2 -0.6180339887498953 0  4.21 -0.6478348363962988 0  4.22 -0.677475840490582 0  4.23 -0.7069496875585155 0  4.24 -0.7362491053693565 0  4.25 -0.7653668647301796 0  4.26 -0.7942957812695606 0  4.27 -0.8230287172102163 0  4.28 -0.851558583130146 0  4.29 -0.8798783397118303 0  4.3 -0.9079809994790931 0  4.31 -0.9358596285211457 0  4.32 -0.9635073482034314 0  4.33 -0.9909173368648152 0  4.34 -1.018082831500742 0  4.35 -1.044997129431897 0  4.36 -1.071653589957994 0  4.37 -1.098045635996264 0  4.38 -1.124166755704261 0  4.39 -1.150010504086556 0  4.4 -1.175570504584947 0  4.41 -1.200840450651768 0  4.42 -1.225814107305953 0  4.43 -1.250485312671409 0  4.44 -1.27484797949738 0  4.45 -1.298896096660368 0  4.46 -1.322623730647304 0  4.47 -1.346025027019546 0  4.48 -1.369094211857378 0  4.49 -1.391825593184629 0  4.5 -1.414213562373095 0  4.51 -1.436252595526377 0  4.52 -1.457937254842822 0  4.53 -1.47926218995722 0  4.54 -1.500222139260919 0  4.55 -1.520811931200061 0  4.56 -1.541026485551578 0  4.57 -1.56086081467666 0  4.58 -1.580310024751381 0  4.59 -1.599369316974181 0  4.6 -1.618033988749894 0  4.61 -1.636299434850047 0  4.62 -1.654161148549124 0  4.63 -1.67161472273654 0  4.64 -1.688655851004029 0  4.65 -1.705280328708185 0  4.66 -1.721484054007887 0  4.67 -1.737263028876382 0  4.68 -1.752613360087727 0  4.69 -1.767531260177387 0  4.7 -1.782013048376736 0  4.71 -1.796055151521231 0  4.72 -1.809654104932039 0  4.73 -1.822806553270891 0  4.74 -1.835509251367963 0  4.75 -1.847759065022573 0  4.76 -1.859552971776502 0  4.77 -1.870888061659734 0  4.78 -1.881761537908451 0  4.79 -1.892170717655091 0  4.8 -1.902113032590307 0  4.81 -1.91158602959666 0  4.82 -1.920587371353886 0  4.83 -1.929114836915596 0  4.84 -1.937166322257262 0  4.85 -1.944739840795353 0  4.86 -1.951833523877495 0  4.87 -1.958445621243532 0  4.88 -1.964574501457377 0  4.89 -1.970218652309548 0  4.9 -1.975376681190276 0  4.91 -1.980047315433115 0  4.92 -1.984229402628956 0  4.93 -1.987921910910359 0  4.94 -1.99112392920616 0  4.95 -1.993834667466256 0  4.96 -1.996053456856543 0  4.97 -1.99777974992394 0  4.98 -1.999013120731463 0  4.99 -1.999753264963321 0  5 -2 0  5.01 -1.999753264963321 0  5.02 -1.999013120731463 0  5.03 -1.99777974992394 0  5.04 -1.996053456856543 0  5.05 -1.993834667466256 0  5.06 -1.99112392920616 0  5.07 -1.987921910910359 0  5.08 -1.984229402628956 0  5.09 -1.980047315433115 0  5.1 -1.975376681190276 0  5.11 -1.970218652309548 0  5.12 -1.964574501457377 0  5.13 -1.958445621243532 0  5.14 -1.951833523877495 0  5.15 -1.944739840795353 0  5.16 -1.937166322257262 0  5.17 -1.929114836915596 0  5.18 -1.920587371353886 0  5.19 -1.91158602959666 0  5.2 -1.902113032590307 0  5.21 -1.892170717655091 0  5.22 -1.881761537908451 0  5.23 -1.870888061659734 0  5.24 -1.859552971776503 0  5.25 -1.847759065022573 0  5.26 -1.835509251367963 0  5.27 -1.822806553270891 0  5.28 -1.809654104932039 0  5.29 -1.796055151521231 0  5.3 -1.782013048376736 0  5.31 -1.767531260177387 0  5.32 -1.752613360087727 0  5.33 -1.737263028876382 0  5.34 -1.721484054007888 0  5.35 -1.705280328708185 0  5.36 -1.68865585100403 0  5.37 -1.67161472273654 0  5.38 -1.654161148549124 0  5.39 -1.636299434850047 0  5.4 -1.618033988749894 0  5.41 -1.599369316974181 0  5.42 -1.580310024751381 0  5.43 -1.56086081467666 0  5.44 -1.541026485551578 0  5.45 -1.520811931200061 0  5.46 -1.500222139260919 0  5.47 -1.47926218995722 0  5.48 -1.457937254842822 0  5.49 -1.436252595526377 0  5.5 -1.414213562373095 0  5.51 -1.39182559318463 0  5.52 -1.369094211857378 0  5.53 -1.346025027019547 0  5.54 -1.322623730647304 0  5.55 -1.298896096660368 0  5.56 -1.27484797949738 0  5.57 -1.25048531267141 0  5.58 -1.225814107305953 0  5.59 -1.200840450651769 0  5.6 -1.175570504584947 0  5.61 -1.150010504086557 0  5.62 -1.124166755704261 0  5.63 -1.098045635996264 0  5.64 -1.071653589957994 0  5.65 -1.044997129431897 0  5.66 -1.018082831500742 0  5.67 -0.9909173368648155 0  5.68 -0.9635073482034312 0  5.69 -0.935859628521146 0  5.7 -0.9079809994790929 0  5.71 -0.8798783397118306 0  5.72 -0.8515585831301458 0  5.73 -0.8230287172102166 0  5.74 -0.7942957812695605 0  5.75 -0.7653668647301798 0  5.76 -0.7362491053693571 0  5.77 -0.7069496875585156 0  5.78 -0.6774758404905826 0  5.79 -0.6478348363962989 0  5.8 -0.6180339887498959 0  5.81 -0.5880806504646091 0  5.82 -0.5579822120784582 0  5.83 -0.5277460999307456 0  5.84 -0.4973797743297105 0  5.85 -0.4668907277118119 0  5.86 -0.4362864827930846 0  5.87 -0.4055745907130247 0  5.88 -0.37476262917145 0  5.89 -0.34385820055882 0  5.9 -0.3128689300804611 0  5.91 -0.2818024638751648 0  5.92 -0.2506664671286091 0  5.93 -0.2194686221820913 0  5.94 -0.1882166266370278 0  5.95 -0.1569181914556892 0  5.96 -0.1255810390586272 0  5.97 -0.09421290141928591 0  5.98 -0.06282151815625558 0  5.99 -0.03141463462364053 0  6 -2.449293598294706e-16 0  6.01 0 0  6.02 0 0  6.03 0 0  6.04 0 0  6.05 0 0  6.06 0 0  6.07 0 0  6.08 0 0  6.09 0 0  6.1 0 0  6.11 0 0  6.12 0 0  6.13 0 0  6.14 0 0  6.15 0 0  6.16 0 0  6.17 0 0  6.18 0 0  6.19 0 0  6.2 0 0  6.21 0 0  6.22 0 0  6.23 0 0  6.24 0 0  6.25 0 0  6.26 0 0  6.27 0 0  6.28 0 0  6.29 0 0  6.3 0 0  6.31 0 0  6.32 0 0  6.33 0 0  6.34 0
[...]
<PointData  Scalars="f_2658-1"> 
<DataArray  type="Float64"  Name="f_2658-1"  format="ascii">-7.2322705034111635e+01  -7.2456505512266375e+01  -7.2244224071231656e+01  -7.2173125688007460e+01  -7.2090950758624416e+01  -7.1999318402485329e+01  -7.1932112197810923e+01  -7.1846953562349441e+01  -7.1765712207656946e+01  -7.1687503878020749e+01  -7.1606038341087441e+01  -7.1527215879225523e+01  -7.1445607770457300e+01  -7.1365472527956271e+01  -7.1285250909099943e+01  -7.1205062581062649e+01  -7.1125177363340811e+01  -7.1045041801513250e+01  -7.0965298310349453e+01  -7.0885265040958870e+01  -7.0805298745865159e+01  -7.0724939679762684e+01  -7.0645754127350500e+01  -7.0565255480388259e+01  -7.0485266210564660e+01  -7.0405364405891717e+01  -7.0325177547886568e+01  -7.0245172141823616e+01  -7.0165319171003929e+01  -7.0085234760748634e+01  -7.0005342273073310e+01  -6.9925555940537635e+01  -6.9845626756900188e+01  -6.9765193528941609e+01  -6.9685381235225847e+01  -6.9605222843129255e+01  -6.9525566908668409e+01  -6.9445407971007768e+01  -6.9365168295332850e+01  -6.9285413137375940e+01  -6.9205204990470079e+01  -6.9125525000600078e+01  -6.9045270374014507e+01  -6.8965199524501216e+01  -6.8885044050708032e+01  -6.8805134618765095e+01  -6.8725301358652530e+01  -6.8645071962837520e+01  -6.8565251281356581e+01  -6.8485339897041371e+01  -6.8404970777866879e+01  -6.8325667208945134e+01  -6.8245190488220899e+01  -6.8165381456601182e+01  -6.8085021751874422e+01  -6.8005442771613687e+01  -6.7924770197157272e+01  -6.7845271058642481e+01  -6.7765267522414902e+01  -6.7685174099278953e+01  -6.7605030655353360e+01  -6.7525124713503288e+01  -6.7445041164201072e+01  -6.7365284247666480e+01  -6.7284880206488069e+01  -6.7205071133044456e+01  -6.7125315942665551e+01  -6.7044919476066070e+01  -6.6965030312417198e+01  -6.6885068379559584e+01  -6.6804341020221543e+01  -6.6725316450693512e+01  -6.6644895848101001e+01  -6.6565060877371678e+01  -6.6484987449629557e+01  -6.6404819386461028e+01  -6.6325027196001471e+01  -6.6244950514910002e+01  -6.6165034249512019e+01  -6.6084954683213539e+01  -6.6005009347417669e+01  -6.5924920012682534e+01  -6.5845056650296499e+01  -6.5764910345484608e+01  -6.5685254974071086e+01  -6.5604955795738206e+01  -6.5525047077626482e+01  -6.5445192278239517e+01  -6.5364975687213615e+01  -6.5285025935488690e+01  -6.5204967756355899e+01  -6.5125079032750108e+01  -6.5044981679818918e+01  -6.4965097917588679e+01  -6.4885121884732854e+01  -6.4805386668104362e+01  -6.4724928725756769e+01  -6.4645193424854156e+01  -6.4564898537683405e+01  -6.4485337063850025e+01  -6.4405096425854779e+01  -6.4325142607995275e+01  -6.4245048650553571e+01  -6.4165162292627997e+01  -6.4085279629805868e+01  -6.4005111681018036e+01  -6.3925176066878805e+01  -6.3845027187007815e+01  -6.3765449159110091e+01  -6.3685111080311358e+01  -6.3605344185841062e+01  -6.3525294532854112e+01  -6.3444939101274187e+01  -6.3365166391492416e+01  -6.3285330143724877e+01  -6.3205225626810375e+01  -6.3125208404088227e+01  -6.3045205295969829e+01  -6.2965317561964369e+01  -6.2885387299339833e+01  -6.2805171823539183e+01  -6.2725341307722275e+01  -6.2645238971615612e+01  -6.2565303654751943e+01  -6.2485193404891902e+01  -6.2405300942434657e+01  -6.2325199925654935e+01  -6.2245267388777158e+01  -6.2165689116165488e+01  -6.2085172380368306e+01  -6.2004886175442245e+01  -6.1925691835146914e+01  -6.1845099958901500e+01  -6.1765539783910050e+01  -6.1685350896120816e+01  -6.1604763810460973e+01  -6.1525389028771876e+01  -6.1445455547547510e+01  -6.1365264837812354e+01  -6.1284955102454390e+01  -6.1205893342307718e+01  -6.1125012911379393e+01  -6.1045302678187326e+01  -6.0965659599079217e+01  -6.0884823713226396e+01  -6.0805313034418759e+01  -6.0725124187089719e+01  -6.0645260825359564e+01  -6.0565227681527453e+01  -6.0485391012311730e+01  -6.0405191042293467e+01  -6.0325228212297262e+01  -6.0245383654697662e+01  -6.0165042954607351e+01  -6.0085317711222743e+01  -6.0005123914246141e+01  -5.9925291068232845e+01  -5.9844913550369185e+01  -5.9765302265859525e+01  -5.9685209281450803e+01  -5.9605295634980578e+01  -5.9525083056157740e+01  -5.9445189078414025e+01  -5.9365177529567255e+01  -5.9285545394519531e+01  -5.9205039069040687e+01  -5.9125168911388798e+01  -5.9045268334668883e+01  -5.8965056051609821e+01  -5.8885284084264320e+01  -5.8805187516028631e+01  -5.8725146508853044e+01  -5.8645204836194551e+01  -5.8565222303333549e+01  -5.8484984805694616e+01  -5.8405316468723171e+01  -5.8325080912194380e+01  -5.8245590972866680e+01  -5.8164768173459805e+01  -5.8085299353636088e+01  -5.8005088746532984e+01  -5.7925277677550461e+01  -5.7844970059272562e+01  -5.7765529419689940e+01  -5.7685161064753430e+01  -5.7605666087424446e+01  -5.7524584041101228e+01  -5.7445263974840429e+01  -5.7365413087595002e+01  -5.7285186790751617e+01  -5.7205195122305632e+01  -5.7125155463759526e+01  -5.7045218543208968e+01  -5.6965240380622376e+01  -5.6885367817196432e+01  -5.6804753094670076e+01  -5.6725443532080398e+01  -5.6644918406717004e+01  -5.6565373406694654e+01  -5.6484780882084337e+01  -5.6405316780768601e+01  -5.6325217896048883e+01  -5.6245213246246188e+01  -5.6165135378319455e+01  -5.6085037146479074e+01  -5.6005208077758709e+01  -5.5924953066911975e+01  -5.5845251958199185e+01  -5.5765110278743272e+01  -5.5685140834441455e+01  -5.5605123615433349e+01  -5.5525082709688739e+01  -5.5444911328641759e+01  -5.5365189686836871e+01  -5.5285149134445696e+01  -5.5204909380692136e+01  -5.5125328988743625e+01  -5.5044574246562043e+01  -5.4965150917819102e+01  -5.4885041393298017e+01  -5.4804909221062928e+01  -5.4725008330869464e+01  -5.4645138492952746e+01  -5.4564678331250619e+01  -5.4484958032624412e+01  -5.4404910078070124e+01  -5.4324962182815028e+01  -5.4244855454550560e+01  -5.4164857195184318e+01  -5.4084843431236180e+01  -5.4004726962178204e+01  -5.3924709367375641e+01  -5.3845271904468056e+01  -5.3764200349932040e+01  -5.3684876421147941e+01  -5.3604491758464782e+01  -5.3524660350953475e+01  -5.3444835206572833e+01  -5.3364529042966218e+01  -5.3284459561068331e+01  -5.3204708031602330e+01  -5.3124279706330597e+01  -5.3044480736453274e+01  -5.2964347979979301e+01  -5.2885115772681722e+01  -5.2803702593200867e+01  -5.2724438091585270e+01  -5.2644398805430086e+01  -5.2563940264838067e+01  -5.2484400968609499e+01  -5.2404006521224829e+01  -5.2324222890836502e+01  -5.2244217577041269e+01  -5.2163980936444645e+01  -5.2084217861771585e+01  -5.2003984067744007e+01  -5.1924005788528689e+01  -5.1843977162053065e+01  -5.1764010172135066e+01  -5.1683952042177985e+01  -5.1603762267347456e+01  -5.1523866696959928e+01  -5.1443902381679585e+01  -5.1363901974133917e+01  -5.1283745657025776e+01  -5.1203846994356198e+01  -5.1123759206537883e+01  -5.1043834380137859e+01  -5.0963738078754986e+01  -5.0884027548001953e+01  -5.0803556539314926e+01  -5.0723883676805016e+01  -5.0643837713320288e+01  -5.0563715788359943e+01  -5.0483951569581137e+01  -5.0403724668839430e+01  -5.0323984241032022e+01  -5.0244107693348809e+01  -5.0163927516606385e+01  -5.0084086985779400e+01  -5.0004193508272174e+01  -4.9924253731240775e+01  -4.9844430465299148e+01  -4.9764405189402289e+01  -4.9684278278216638e+01  -4.9604944569447269e+01  -4.9525113605284503e+01  -4.9444152749136528e+01  -4.9365317568419719e+01  -4.9285330135615595e+01  -4.9205468742540241e+01  -4.9125744308277696e+01  -4.9046241764319610e+01  -4.8965810539455894e+01  -4.8886667830973344e+01  -4.8806349654999316e+01  -4.8727288168957365e+01  -4.8647338811245156e+01  -4.8567886461863168e+01  -4.8487983180667790e+01  -4.8408760108050451e+01  -4.8328400913628577e+01  -4.8249904811771515e+01  -4.8169890912076859e+01  -4.8090850403739786e+01  -4.8010700627424768e+01  -4.7931855763404940e+01  -4.7852500839438562e+01  -4.7772898861457932e+01  -4.7693948656403350e+01  -4.7614862152694748e+01  -4.7534986568258262e+01  -4.7456450601830383e+01  -4.7377362140927886e+01  -4.7298236470376381e+01  -4.7219415924287887e+01  -4.7140552680081697e+01  -4.7061706373963375e+01  -4.6983089901230514e+01  -4.6904167895162381e+01  -4.6825743136843840e+01  -4.6747281599502919e+01  -4.6668593763230234e+01  -4.6590426761155783e+01  -4.6512069187439359e+01  -4.6433878130180368e+01  -4.6355993167074274e+01  -4.6277702208633976e+01  -4.6199975400908158e+01  -4.6122332217512977e+01  -4.6044451862764426e+01  -4.5967059796388632e+01  -4.5889829293642826e+01  -4.5812233838268916e+01  -4.5735469974183204e+01  -4.5658176714585416e+01  -4.5581739449627676e+01  -4.5504681321691365e+01  -4.5428452930072460e+01  -4.5352037402820443e+01  -4.5275788211077959e+01  -4.5199919545926051e+01  -4.5123800517045083e+01  -4.5048578239847870e+01  -4.4973282934547960e+01  -4.4898204036842323e+01  -4.4822748725259025e+01  -4.4748692181757058e+01  -4.4674200309913864e+01  -4.4599741071843148e+01  -4.4526176032394169e+01  -4.4452835533468395e+01  -4.4379429220697304e+01  -4.4306889344488468e+01  -4.4234386510315211e+01  -4.4162375065700509e+01  -4.4090753152050027e+01  -4.4019285940955392e+01  -4.3947557290118752e+01  -4.3878495592916295e+01  -4.3807940001370120e+01  -4.3739346830237203e+01  -4.3669575943069773e+01  -4.3601849618476962e+01  -4.3533950101168152e+01  -4.3466463698466065e+01  -4.3401221850745245e+01  -4.3334800339662927e+01  -4.3270235940857496e+01  -4.3205948831030540e+01  -4.3143925409368272e+01  -4.3080808423376702e+01  -4.3020459887905446e+01  -4.2959291466485652e+01  -4.2900926445198081e+01  -4.2842837111163895e+01  -4.2788586386382747e+01  -4.2732977686298455e+01  -4.2683062845911643e+01  -4.2632693298909963e+01  -4.2590257953541744e+01  -4.2538474768977714e+01  -4.2499425995243911e+01  -4.2456123067069790e+01  -4.2421150199427615e+01  -4.2385870916616341e+01  -4.2359188551852334e+01  -4.2336289700827621e+01  -4.2339739229372860e+01  -4.2320221475905790e+01  -4.2339756663687886e+01  -4.2343300043655404e+01  -4.2376320141495931e+01  -4.2434265441977381e+01  -4.2599145702972216e+01  -4.2558687039008660e+01  -4.3108408085940212e+01  -4.2828395558229346e+01  -4.4655067150392625e+01  -4.2520761767146517e+01  -5.8847098532143306e+01  -2.8918031860337976e+01  -3.0524719525452038e+01  -3.2779676669394647e+01  -3.3507973632903820e+01  -3.3918000522652704e+01  -3.4226379058605367e+01  -3.4448121523893917e+01  -3.4572780271078010e+01  -3.4740413268897406e+01  -3.4802881566232543e+01  -3.4917176022056786e+01  -3.4979284694854314e+01  -3.5048129367488606e+01  -3.5094742314590945e+01  -3.5152856042716856e+01  -3.5196162907621918e+01  -3.5241522232094070e+01  -3.5277088585623808e+01  -3.5316995757710487e+01  -3.5349943981703305e+01  -3.5385821328400503e+01  -3.5416134676741336e+01  -3.5447150868545627e+01  -3.5478375515967940e+01  -3.5502502651360338e+01  -3.5533714220517467e+01  -3.5558669223972217e+01  -3.5585382801414205e+01  -3.5607101189370816e+01  -3.5631652533905857e+01  -3.5652423511100700e+01  -3.5673796533894240e+01  -3.5694355931410428e+01  -3.5712073137335302e+01  -3.5731500085730204e+01  -3.5747931806220365e+01  -3.5765141396255622e+01  -3.5779301211357335e+01  -3.5794557592892701e+01  -3.5807794808044989e+01  -3.5821101184945249e+01  -3.5832382755509514e+01  -3.5844208366034344e+01  -3.5853814020033198e+01  -3.5864469969476666e+01  -3.5872770716758453e+01  -3.5880853978724417e+01  -3.5888625823573115e+01  -3.5896045908605608e+01  -3.5902022008071057e+01  -3.5908059657945650e+01  -3.5913584539053119e+01  -3.5918595340274003e+01  -3.5923010983858433e+01  -3.5927052220705221e+01  -3.5930588253524178e+01  -3.5934349292904429e+01  -3.5936723622625109e+01  -3.5939643785299118e+01  -3.5942558561916449e+01  -3.5943618648201465e+01  -3.5946146716943083e+01  -3.5947663744258655e+01  -3.5949006917419332e+01  -3.5950282495989647e+01  -3.5951216992017223e+01  -3.5953022438540778e+01  -3.5952336221629281e+01  -3.5953949286401183e+01  -3.5954257953789821e+01  -3.5954784721281442e+01  -3.5955165916492199e+01  -3.5955382956030988e+01  -3.5955630830365827e+01  -3.5955760751984208e+01  -3.5955867546039215e+01  -3.5955992080588373e+01  -3.5955688845198566e+01  -3.5956199903897335e+01  -3.5955964398238820e+01  -3.5955600515612595e+01  -3.5955701783567719e+01  -3.5956478969011052e+01  -3.5954643291754770e+01  -3.5955506310353790e+01  -3.5955102450749848e+01  -3.5955258897359741e+01  -3.5954695790405012e+01  -3.5954676567600714e+01  -3.5954571860372980e+01  -3.5954237094841602e+01  -3.5954667873684052e+01  -3.5953645035977402e+01  -3.5954372692297646e+01  -3.5953262301615240e+01  -3.5953460238818217e+01  -3.5953305598993111e+01  -3.5953257790284709e+01  -3.5952921253077776e+01  -3.5952513269671620e+01  -3.5953627905420959e+01  -3.5951589237977025e+01  -3.5952322539791844e+01  -3.5952303295106397e+01  -3.5950989641503917e+01  -3.5952703354265751e+01  -3.5951455910720384e+01  -3.5951404456478471e+01  -3.5951282270078174e+01  -3.5950986060097215e+01  -3.5951096726472365e+01  -3.5950757059145744e+01  -3.5950637632446806e+01  -3.5950424562411811e+01  -3.5950236248031935e+01  -3.5950788614121002e+01  -3.5949516624571579e+01  -3.5950000676323000e+01  -3.5949898390785904e+01  -3.5949798567158410e+01  -3.5949513380875736e+01  -3.5949788105739870e+01  -3.5948757885265934e+01  -3.5950393527551178e+01  -3.5949575223363908e+01  -3.5949656581310883e+01  -3.5950011587358944e+01  -3.5949956516752614e+01  -3.5950267477950383e+01  -3.5950219572046436e+01  -3.5951343692856597e+01  -3.5951171329100227e+01  -3.5952288622243003e+01  -3.5952602255895094e+01  -3.5953480615873829e+01  -3.5954736357732934e+01  -3.5955191463566592e+01  -3.5956774739370985e+01  -3.5958116216712213e+01  -3.5959838089508267e+01  -3.5961499013510689e+01  -3.5963893531335209e+01  -3.5966176783992211e+01  -3.5968693725305286e+01  -3.5971862564798862e+01  -3.5975285098012556e+01  -3.5978859411591685e+01  -3.5982667925508196e+01  -3.5987512423104228e+01  -3.5992019425735037e+01  -3.5997947451095555e+01  -3.6003018546266418e+01  -3.6010311798112426e+01  -3.6016910754580813e+01  -3.6024736766553644e+01  -3.6032908445786752e+01  -3.6041679704371575e+01  -3.6051669111272297e+01  -3.6061612220481720e+01  -3.6073683536485873e+01  -3.6084382191601051e+01  -3.6098661943568132e+01  -3.6110539343057958e+01  -3.6126117142442332e+01  -3.6140749024041817e+01  -3.6158328886637975e+01  -3.6173562442665045e+01  -3.6193541650078032e+01  -3.6210950197295325e+01  -3.6232257468417693e+01  -3.6252288883526504e+01  -3.6274612877332480e+01  -3.6296594929346718e+01  -3.6321828814074870e+01  -3.6346907177261109e+01  -3.6372066466681837e+01  -3.6401656461410710e+01  -3.6426831777967458e+01  -3.6458489506600905e+01  -3.6486869952401783e+01  -3.6522481344147771e+01  -3.6551918065386637e+01  -3.6589737664416489e+01  -3.6626368024968372e+01  -3.6664602323889866e+01  -3.6711451402417531e+01  -3.6752099432084783e+01  -3.6802287258123279e+01  -3.6864235270554254e+01  -3.6916912829152643e+01  -3.7013245201294055e+01  -3.7080949442507240e+01  -3.7176111443514564e+01  -3.7307849566079348e+01  -3.7447192453010572e+01  -3.7658471284136652e+01  -3.7907410062696542e+01  -3.8748975279301760e+01  -3.7783562007111016e+01  -4.3682603486644773e+01  -3.8101388278049747e+01  -1.7842443502810514e+01  -3.1478991243665547e+01  -2.7989859760206571e+01  -2.8540193564739383e+01  -2.9174207810109422e+01  -2.9140967314282125e+01  -2.9376236607633480e+01  -2.9407128840594595e+01  -2.9520024131252097e+01  -2.9531165444949877e+01  -2.9568436624958068e+01  -2.9580322586488847e+01  -2.9565736100530703e+01  -2.9564557659114918e+01  -2.9541497416100135e+01  -2.9516767551954274e+01  -2.9479547042783029e+01  -2.9449368309540759e+01  -2.9404357814587634e+01  -2.9366892149858312e+01  -2.9319315170926139e+01  -2.9272263516357047e+01  -2.9220164058621151e+01  -2.9171532454700660e+01  -2.9115403727579722e+01  -2.9061273181093124e+01  -2.9002706193862789e+01  -2.8944025700416532e+01  -2.8884808995129244e+01  -2.8822483375220941e+01  -2.8761789824058560e+01  -2.8698371635798079e+01  -2.8633245528106123e+01  -2.8569414495189999e+01  -2.8503294297101242e+01  -2.8436859011345163e+01  -2.8370052779601984e+01  -2.8301520173839226e+01  -2.8234279877805577e+01  -2.8164530618338173e+01  -2.8095957361631584e+01  -2.8026003399024930e+01  -2.7955047934017205e+01  -2.7884662713088417e+01  -2.7813445910183802e+01  -2.7741734855411973e+01  -2.7669191717977018e+01  -2.7597104423748114e+01  -2.7523596445999008e+01  -2.7450534614320695e+01  -2.7377054357087189e+01  -2.7303251251933595e+01  -2.7228676122283019e+01  -2.7154501093987804e+01  -2.7080236653964246e+01  -2.7005119188005246e+01  -2.6929973568513958e+01  -2.6854879073701557e+01  -2.6779098899509414e+01  -2.6703460416138309e+01  -2.6627488305364196e+01  -2.6551366138665347e+01  -2.6474865394085377e+01  -2.6398491989811561e+01  -2.6321868775416721e+01  -2.6244856077173139e+01  -2.6167944069188337e+01  -2.6091087947329164e+01  -2.6013470050782811e+01  -2.5936099395243879e+01  -2.5858799438140732e+01  -2.5780885351713991e+01  -2.5703284348341825e+01  -2.5625369645554986e+01  -2.5547336323604654e+01  -2.5469265655196317e+01  -2.5391115716963313e+01  -2.5312881450909114e+01  -2.5234368723613947e+01  -2.5156184114488951e+01  -2.5077345305132180e+01  -2.4998779936621577e+01  -2.4920362974170754e+01  -2.4841283952265879e+01  -2.4762614180850765e+01  -2.4683756444855490e+01  -2.4604751714751277e+01  -2.4525763498714745e+01  -2.4446820512747479e+01  -2.4367557734119266e+01  -2.4288566587562840e+01  -2.4209178306649711e+01  -2.4129981919550961e+01  -2.4050644814609726e+01  -2.3971445363578372e+01  -2.3891932732316501e+01  -2.3812522627159396e+01  -2.3733228236461404e+01  -2.3653563883290087e+01  -2.3574089181321913e+01  -2.3494517305941038e+01  -2.3415030337341143e+01  -2.3335343078033848e+01  -2.3255707356764091e+01  -2.3176105105896589e+01  -2.3096361875114486e+01  -2.3016716233097029e+01  -2.2936941955875934e+01  -2.2857194641758824e+01  -2.2777450655409535e+01  -2.2697794881015035e+01  -2.2617778169106028e+01  -2.2538047410942283e+01  -2.2458393925274269e+01  -2.2378262150759820e+01  -2.2298550943943638e+01  -2.2218644726721795e+01  -2.2138799708383932e+01  -2.2058891925830260e+01  -2.1978904106791965e+01  -2.1899164983498533e+01  -2.1819135209010746e+01  -2.1739451991586186e+01  -2.1659095735216592e+01  -2.1579376636587472e+01  -2.1499404286773856e+01  -2.1419459691056844e+01  -2.1339475938145501e+01  -2.1259537092100867e+01  -2.1179523519672827e+01  -2.1099495620654618e+01  -2.1019665975662090e+01  -2.0939578998899439e+01  -2.0859626372465460e+01  -2.0779461959576338e+01  -2.0699792377465201e+01  -2.0619587625596516e+01  -2.0539738976437754e+01  -2.0459498472417682e+01  -2.0379615239377131e+01  -2.0299567681434908e+01  -2.0219851564307529e+01  -2.0139300328421633e+01  -2.0059575753230924e+01  -1.9979691621401038e+01  -1.9899371282669776e+01  -1.9819525922228273e+01  -1.9739474794352049e+01  -1.9659543784161588e+01  -1.9579368754695242e+01  -1.9499439926528314e+01  -1.9419431548476133e+01  -1.9339363590311688e+01  -1.9259368580664791e+01  -1.9179419429610245e+01  -1.9099298546496090e+01  -1.9019439479285140e+01  -1.8939175050214285e+01  -1.8859320591502602e+01  -1.8779176875523785e+01  -1.8699251137387776e+01  -1.8619257024420662e+01  -1.8539136949414338e+01  -1.8459183973100455e+01  -1.8379160476784147e+01  -1.8299160384161670e+01  -1.8219092809772953e+01  -1.8139126747928806e+01  -1.8059016604863881e+01  -1.7979070591809958e+01  -1.7899227346401489e+01  -1.7818844549689111e+01  -1.7739118180010756e+01  -1.7658870513660617e+01  -1.7579026345203655e+01  -1.7499013534001524e+01  -1.7418943702285624e+01  -1.7339047823314601e+01  -1.7258848195626548e+01  -1.7178934057935034e+01  -1.7098930848595170e+01  -1.7018891382426141e+01  -1.6938895349365538e+01  -1.6858892437476317e+01  -1.6778850731375709e+01  -1.6698871398457403e+01  -1.6618852992288062e+01  -1.6538856877680605e+01  -1.6458922046376948e+01  -1.6378723162410569e+01  -1.6298925168174510e+01  -1.6218665277720032e+01  -1.6138925251323126e+01  -1.6058667949515858e+01  -1.5978