<?xml version="1.0"?>
<VTKFile type="UnstructuredGrid"  version="0.1"  >
<UnstructuredGrid>
<Piece  NumberOfPoints="5023" NumberOfCells="7844">
<Points>
<DataArray  type="Float64"  NumberOfComponents="3"  format="ascii">0 0.01 0  0 0 0  0.01 0 0  0.02 0 0  0.03 0 0  0.04 0 0  0.05 0 0  0.06 0 0  0.07000000000000001 0 0  0.08 0 0  0.09 0 0  0.1 0 0  0.11 0 0  0.12 0 0  0.13 0 0  0.14 0 0  0.15 0 0  0.16 0 0  0.17 0 0  0.18 0 0  0.19 0 0  0.2 0 0  0.21 0 0  0.22 0 0  0.23 0 0  0.24 0 0  0.25 0 0  0.26 0 0  0.27 0 0  0.28 0 0  0.29 0 0  0.3 0 0  0.31 0 0  0.32 0 0  0.33 0 0  0.34 0 0  0.35 0 0  0.36 0 0  0.37 0 0  0.38 0 0  0.39 0 0  0.4 0 0  0.41 0 0  0.42 0 0  0.43 0 0  0.44 0 0  0.45 0 0  0.46 0 0  0.47 0 0  0.48 0 0  0.49 0 0  0.5 0 0  0.51 0 0  0.52 0 0  0.53 0 0  0.54 0 0  0.55 0 0  0.5600000000000001 0 0  0.57 0 0  0.58 0 0  0.59 0 0  0.6 0 0  0.61 0 0  0.62 0 0  0.63 0 0  0.64 0 0  0.65 0 0  0.66 0 0  0.67 0 0  0.68 0 0  0.6899999999999999 0 0  0.7 0 0  0.71 0 0  0.72 0 0  0.73 0 0  0.74 0 0  0.75 0 0  0.76 0 0  0.77 0 0  0.78 0 0  0.79 0 0  0.8 0 0  0.8100000000000001 0 0  0.82 0 0  0.83 0 0  0.84 0 0  0.85 0 0  0.86 0 0  0.87 0 0  0.88 0 0  0.89 0 0  0.9 0 0  0.91 0 0  0.92 0 0  0.93 0 0  0.9399999999999999 0 0  0.95 0 0  0.96 0 0  0.97 0 0  0.98 0 0  0.99 0 0  1 0 0  1.01 0 0  1.02 0 0  1.03 0 0  1.04 0 0  1.05 0 0  1.06 0 0  1.07 0 0  1.08 0 0  1.09 0 0  1.1 0 0  1.11 0 0  1.12 0 0  1.13 0 0  1.14 0 0  1.15 0 0  1.16 0 0  1.17 0 0  1.18 0 0  1.19 0 0  1.2 0 0  1.21 0 0  1.22 0 0  1.23 0 0  1.24 0 0  1.25 0 0  1.26 0 0  1.27 0 0  1.28 0 0  1.29 0 0  1.3 0 0  1.31 0 0  1.32 0 0  1.33 0 0  1.34 0 0  1.35 0 0  1.36 0 0  1.37 0 0  1.38 0 0  1.39 0 0  1.4 0 0  1.41 0 0  1.42 0 0  1.43 0 0  1.44 0 0  1.45 0 0  1.46 0 0  1.47 0 0  1.48 0 0  1.49 0 0  1.5 0 0  1.51 0 0  1.52 0 0  1.53 0 0  1.54 0 0  1.55 0 0  1.56 0 0  1.57 0 0  1.58 0 0  1.59 0 0  1.6 0 0  1.61 0 0  1.62 0 0  1.63 0 0  1.64 0 0  1.65 0 0  1.66 0 0  1.67 0 0  1.68 0 0  1.69 0 0  1.7 0 0  1.71 0 0  1.72 0 0  1.73 0 0  1.74 0 0  1.75 0 0  1.76 0 0  1.77 0 0  1.78 0 0  1.79 0 0  1.8 0 0  1.81 0 0  1.82 0 0  1.83 0 0  1.84 0 0  1.85 0 0  1.86 0 0  1.87 0 0  1.88 0 0  1.89 0 0  1.9 0 0  1.91 0 0  1.92 0 0  1.93 0 0  1.94 0 0  1.95 0 0  1.96 0 0  1.97 0 0  1.98 0 0  1.99 0 0  2 0 0  2.01 0 0  2.02 0 0  2.03 0 0  2.04 0 0  2.05 0 0  2.06 0 0  2.07 0 0  2.08 0 0  2.09 0 0  2.1 0 0  2.11 0 0  2.12 0 0  2.13 0 0  2.14 0 0  2.15 0 0  2.16 0 0  2.17 0 0  2.18 0 0  2.19 0 0  2.2 0 0  2.21 0 0  2.22 0 0  2.23 0 0  2.24 0 0  2.25 0 0  2.26 0 0  2.27 0 0  2.28 0 0  2.29 0 0  2.3 0 0  2.31 0 0  2.32 0 0  2.33 0 0  2.34 0 0  2.35 0 0  2.36 0 0  2.37 0 0  2.38 0 0  2.39 0 0  2.4 0 0  2.41 0 0  2.42 0 0  2.43 0 0  2.44 0 0  2.45 0 0  2.46 0 0  2.47 0 0  2.48 0 0  2.49 0 0  2.5 0 0  2.51 0 0  2.52 0 0  2.53 0 0  2.54 0 0  2.55 0 0  2.56 0 0  2.57 0 0  2.58 0 0  2.59 0 0  2.6 0 0  2.61 0 0  2.62 0 0  2.63 0 0  2.64 0 0  2.65 0 0  2.66 0 0  2.67 0 0  2.68 0 0  2.69 0 0  2.7 0 0  2.71 0 0  2.72 0 0  2.73 0 0  2.74 0 0  2.75 0 0  2.76 0 0  2.77 0 0  2.78 0 0  2.79 0 0  2.8 0 0  2.81 0 0  2.82 0 0  2.83 0 0  2.84 0 0  2.85 0 0  2.86 0 0  2.87 0 0  2.88 0 0  2.89 0 0  2.9 0 0  2.91 0 0  2.92 0 0  2.93 0 0  2.94 0 0  2.95 0 0  2.96 0 0  2.97 0 0  2.98 0 0  2.99 0 0  3 0 0  3.01 0 0  3.02 0 0  3.03 0 0  3.04 0 0  3.05 0 0  3.06 0 0  3.07 0 0  3.08 0 0  3.09 0 0  3.1 0 0  3.11 0 0  3.12 0 0  3.13 0 0  3.14 0 0  3.15 0 0  3.16 0 0  3.17 0 0  3.18 0 0  3.19 0 0  3.2 0 0  3.21 0 0  3.22 0 0  3.23 0 0  3.24 0 0  3.25 0 0  3.26 0 0  3.27 0 0  3.28 0 0  3.29 0 0  3.3 0 0  3.31 0 0  3.32 0 0  3.33 0 0  3.34 0 0  3.35 0 0  3.36 0 0  3.37 0 0  3.38 0 0  3.39 0 0  3.4 0 0  3.41 0 0  3.42 0 0  3.43 0 0  3.44 0 0  3.45 0 0  3.46 0 0  3.47 0 0  3.48 0 0  3.49 0 0  3.5 0 0  3.51 0 0  3.52 0 0  3.53 0 0  3.54 0 0  3.55 0 0  3.56 0 0  3.57 0 0  3.58 0 0  3.59 0 0  3.6 0 0  3.61 0 0  3.62 0 0  3.63 0 0  3.64 0 0  3.65 0 0  3.66 0 0  3.67 0 0  3.68 0 0  3.69 0 0  3.7 0 0  3.71 0 0  3.72 0 0  3.73 0 0  3.74 0 0  3.75 0 0  3.76 0 0  3.77 0 0  3.78 0 0  3.79 0 0  3.8 0 0  3.81 0 0  3.82 0 0  3.83 0 0  3.84 0 0  3.85 0 0  3.86 0 0  3.87 0 0  3.88 0 0  3.89 0 0  3.9 0 0  3.91 0 0  3.92 0 0  3.93 0 0  3.94 0 0  3.95 0 0  3.96 0 0  3.97 0 0  3.98 0 0  3.99 0 0  4 0 0  4.01 0 0  4.02 0 0  4.03 0 0  4.04 0 0  4.05 0 0  4.06 0 0  4.07 0 0  4.08 0 0  4.09 0 0  4.1 0 0  4.11 0 0  4.12 0 0  4.13 0 0  4.14 0 0  4.15 0 0  4.16 0 0  4.17 0 0  4.18 0 0  4.19 0 0  4.2 0 0  4.21 0 0  4.22 0 0  4.23 0 0  4.24 0 0  4.25 0 0  4.26 0 0  4.27 0 0  4.28 0 0  4.29 0 0  4.3 0 0  4.31 0 0  4.32 0 0  4.33 0 0  4.34 0 0  4.35 0 0  4.36 0 0  4.37 0 0  4.38 0 0  4.39 0 0  4.4 0 0  4.41 0 0  4.42 0 0  4.43 0 0  4.44 0 0  4.45 0 0  4.46 0 0  4.47 0 0  4.48 0 0  4.49 0 0  4.5 0 0  4.51 -0.06282151815625525 0  4.52 -0.1255810390586241 0  4.53 -0.1882166266370302 0  4.54 -0.2506664671286087 0  4.55 -0.3128689300804606 0  4.56 -0.3747626291714468 0  4.57 -0.4362864827930868 0  4.58 -0.49737977432971 0  4.59 -0.5579822120784577 0  4.6 -0.6180339887498927 0  4.61 -0.6774758404905846 0  4.62 -0.7362491053693565 0  4.63 -0.7942957812695606 0  4.64 -0.8515585831301434 0  4.65 -0.9079809994790955 0  4.66 -0.9635073482034314 0  4.67 -1.018082831500742 0  4.68 -1.071653589957992 0  4.69 -1.124166755704263 0  4.7 -1.175570504584947 0  4.71 -1.225814107305953 0  4.72 -1.274847979497378 0  4.73 -1.322623730647306 0  4.74 -1.369094211857378 0  4.75 -1.414213562373095 0  4.76 -1.457937254842822 0  4.77 -1.500222139260917 0  4.78 -1.541026485551579 0  4.79 -1.580310024751381 0  4.8 -1.618033988749894 0  4.81 -1.654161148549122 0  4.82 -1.688655851004031 0  4.83 -1.721484054007887 0  4.84 -1.752613360087727 0  4.85 -1.782013048376735 0  4.86 -1.80965410493204 0  4.87 -1.835509251367963 0  4.88 -1.859552971776502 0  4.89 -1.88176153790845 0  4.9 -1.902113032590308 0  4.91 -1.920587371353886 0  4.92 -1.937166322257262 0  4.93 -1.951833523877494 0  4.94 -1.964574501457378 0  4.95 -1.975376681190276 0  4.96 -1.984229402628956 0  4.97 -1.99112392920616 0  4.98 -1.996053456856543 0  4.99 -1.999013120731463 0  5 -2 0  5.01 -1.999013120731463 0  5.02 -1.996053456856543 0  5.03 -1.99112392920616 0  5.04 -1.984229402628956 0  5.05 -1.975376681190276 0  5.06 -1.964574501457378 0  5.07 -1.951833523877494 0  5.08 -1.937166322257262 0  5.09 -1.920587371353886 0  5.1 -1.902113032590308 0  5.11 -1.88176153790845 0  5.12 -1.859552971776503 0  5.13 -1.835509251367963 0  5.14 -1.80965410493204 0  5.15 -1.782013048376735 0  5.16 -1.752613360087727 0  5.17 -1.721484054007888 0  5.18 -1.688655851004031 0  5.19 -1.654161148549123 0  5.2 -1.618033988749894 0  5.21 -1.580310024751381 0  5.22 -1.54102648555158 0  5.23 -1.500222139260918 0  5.24 -1.457937254842822 0  5.25 -1.414213562373095 0  5.26 -1.369094211857378 0  5.27 -1.322623730647306 0  5.28 -1.274847979497378 0  5.29 -1.225814107305953 0  5.3 -1.175570504584947 0  5.31 -1.124166755704263 0  5.32 -1.071653589957992 0  5.33 -1.018082831500742 0  5.34 -0.9635073482034312 0  5.35 -0.9079809994790962 0  5.36 -0.8515585831301434 0  5.37 -0.7942957812695605 0  5.38 -0.7362491053693571 0  5.39 -0.6774758404905852 0  5.4 -0.6180339887498926 0  5.41 -0.5579822120784582 0  5.42 -0.4973797743297105 0  5.43 -0.4362864827930872 0  5.44 -0.3747626291714474 0  5.45 -0.3128689300804611 0  5.46 -0.2506664671286091 0  5.47 -0.1882166266370305 0  5.48 -0.1255810390586245 0  5.49 -0.06282151815625558 0  5.5 -2.449293598294706e-16 0  5.51 0 0  5.52 0 0  5.53 0 0  5.54 0 0  5.55 0 0  5.56 0 0  5.57 0 0  5.58 0 0  5.59 0 0  5.6 0 0  5.61 0 0  5.62 0 0  5.63 0 0  5.64 0 0  5.65 0 0  5.66 0 0  5.67 0 0  5.68 0 0  5.69 0 0  5.7 0 0  5.71 0 0  5.72 0 0  5.73 0 0  5.74 0 0  5.75 0 0  5.76 0 0  5.77 0 0  5.78 0 0  5.79 0 0  5.8 0 0  5.81 0 0  5.82 0 0  5.83 0 0  5.84 0 0  5.85 0 0  5.86 0 0  5.87 0 0  5.88 0 0  5.89 0 0  5.9 0 0  5.91 0 0  5.92 0 0  5.93 0 0  5.94 0 0  5.95 0 0  5.96 0 0  5.97 0 0  5.98 0 0  5.99 0 0  6 0 0  6.01 0 0  6.02 0 0  6.03 0 0  6.04 0 0  6.05 0 0  6.06 0 0  6.07 0 0  6.08 0 0  6.09 0 0  6.1 0 0  6.11 0 0  6.12 0 0  6.13 0 0  6.14 0 0  6.15 0 0  6.16 0 0  6.17 0 0  6.18 0 0  6.19 0 0  6.2 0 0  6.21 0 0  6.22 0 0  6.23 0 0  6.24 0 0  6.25 0 0  6.26 0 0  6.27 0 0  6.28 0 0  6.29 0 0  6.3 0 0  6.31 0 0  6.32 0 0  6.33 0 0  6.34 0 0  6.35 0 0  6.36 0 0  6.37 0 0  6.38 0 0  6.39 0 0  6.4 0 0  6.41 0 0  6.42 0 0  6.43 0 0  6.44 0 0  6.45 0 0  6.46 0 0  6.47 0 0  6.48 0 0  6.49 0 0  6.5 0 0  6.51 0 0  6.52 0 0  6.53 0 0  6.54 0 0  6.55 0 0  6.56 0 0  6.57 0 0  6.58 0 0  6.59 0 0  6.6 0 0  6.61 0 0  6.62 0 0  6.63 0 0  6.64 0 0  6.65 0 0  6.66 0 0  6.67 0 0  6.68 0 0  6.69 0 0  6.7 0 0  6.71 0 0  6.72 0 0  6.73 0 0  6.74 0 0  6.75 0 0  6.76 0 0  6.77 0 0  6.78 0 0  6.79 0 0  6.8 0 0  6.81 0 0  6.82 0 0  6.83 0 0  6.84 0 0  6.85 0 0  6.86 0 0  6.87 0 0  6.88 0 0  6.89 0 0  6.9 0 0  6.91 0 0  6.92 0 0  6.93 0 0  6.94 0 0  6.95 0 0  6.96 0 0  6.97 0 0  6.98 0 0  6.99 0 0  7 0 0  7.01 0 0  7.02 0 0  7.03 0 0  7.04 0 0  7.05 0 0  7.06 0 0  7.07 0 0  7.08 0 0  7.09 0 0  7.1 0 0  7.11 0 0  7.12 0 0  7.13 0 0  7.14 0 0  7.15 0 0  7.16 0 0  7.17 0 0  7.18 0 0  7.19 0 0  7.2 0 0  7.21 0 0  7.22 0 0  7.23 0 0  7.24 0 0  7.25 0 0  7.26 0 0  7.27 0 0  7.28 0 0  7.29 0 0  7.3 0 0  7.31 0 0  7.32 0 0  7.33 0 0  7.34 0 0  7.35 0 0  7.36 0 0  7.37 0 0  7.38 0 0  7.39 0 0  7.4 0 0  7.41 0 0  7.42 0 0  7.43 0 0  7.44 0 0  7.45 0 0  7.46 0 0  7.47 0 0  7.48 0 0  7.49 0 0  7.5 0 0  7.51 0 0  7.52 0 0  7.53 0 0  7.54 0 0  7.55 0 0  7.56 0 0  7.57 0 0  7.58 0 0  7.59 0 0  7.6 0 0  7.61 0 0  7.62 0 0  7.63 0 0  7.64 0 0  7.65 0 0  7.66 0 0  7.67 0 0  7.68 0 0  7.69 0 0  7.7 0 0  7.71 0 0  7.72 0 0  7.73 0 0  7.74 0 0  7.75 0 0  7.76 0 0  7.77 0 0  7.78 0 0  7.79 0 0  7.8 0 0  7.81 0 0  7.82 0 0  7.83 0 0  7.84 0 0  7.85 0 0  7.86 0 0  7.87 0 0  7.88 0 0  7.89 0 0  7.9 0 0  7.91 0 0  7.92 0 0  7.93 0 0  7.94 0 0  7.95 0 0  7.96 0 0  7.97 0 0  7.98 0 0  7.99 0 0  8 0 0  8.01 0 0  8.02 0 0  8.029999999999999 0 0  8.039999999999999 0 0  8.0500000
[...]
<PointData  Scalars="f_1762"> 
<DataArray  type="Float64"  Name="f_1762"  format="ascii">1.0000000000000000e+00  1.0000000000000000e+00  9.6932603114586025e-01  9.4529669547706197e-01  9.2410558578708657e-01  9.0501957144876677e-01  8.8786099850131117e-01  8.7183174318620471e-01  8.5673209403213646e-01  8.4255164839164276e-01  8.2914410522484816e-01  8.1633561524101794e-01  8.0404609878309552e-01  7.9225694079175846e-01  7.8088064357692488e-01  7.6997568358749946e-01  7.5943018191255685e-01  7.4918224068161887e-01  7.3919698285733393e-01  7.2954867743880514e-01  7.2014268316856156e-01  7.1100038622157236e-01  7.0209891759147658e-01  6.9349199689431540e-01  6.8510580873202009e-01  6.7684997776898270e-01  6.6884039070761125e-01  6.6100258953355462e-01  6.5334072449958092e-01  6.4583282028637767e-01  6.3852055664466933e-01  6.3133482842916455e-01  6.2429559858256345e-01  6.1738711849748296e-01  6.1064878712107740e-01  6.0401516083579976e-01  5.9745317336893722e-01  5.9104645161300839e-01  5.8474721321628076e-01  5.7858412735129061e-01  5.7251345169605550e-01  5.6658337203627096e-01  5.6073260363872046e-01  5.5496861585508639e-01  5.4927426567861126e-01  5.4369143613683990e-01  5.3816643161474509e-01  5.3274232423020673e-01  5.2738613997644834e-01  5.2211882362889617e-01  5.1693482771525445e-01  5.1186651166550579e-01  5.0686808393902227e-01  5.0191112013816364e-01  4.9703974676494439e-01  4.9222525523881305e-01  4.8749848295471504e-01  4.8281721203172656e-01  4.7820080485732624e-01  4.7363191868688748e-01  4.6915318827957347e-01  4.6471965564676204e-01  4.6035112029054431e-01  4.5603307353821876e-01  4.5179031420869054e-01  4.4758640246767900e-01  4.4342269905946252e-01  4.3933024471099197e-01  4.3526805764260390e-01  4.3124883047157736e-01  4.2727431158665008e-01  4.2336681559449957e-01  4.1949179953494287e-01  4.1567876233504858e-01  4.1189407563232694e-01  4.0815670775906532e-01  4.0446012389172659e-01  4.0081808931814078e-01  3.9720629731389751e-01  3.9365707807644529e-01  3.9013558165926576e-01  3.8665777496461551e-01  3.8320864468051025e-01  3.7978479487122008e-01  3.7641255380240057e-01  3.7306054334061539e-01  3.6975270956452161e-01  3.6647936610772508e-01  3.6325495153320936e-01  3.6005743717197902e-01  3.5691356646283534e-01  3.5379210125202559e-01  3.5070760945947549e-01  3.4764650223625615e-01  3.4460631641389106e-01  3.4161001558321563e-01  3.3862941217095716e-01  3.3568138004271147e-01  3.3276161308710889e-01  3.2988983729981436e-01  3.2703957971069153e-01  3.2420383237230926e-01  3.2140487503959997e-01  3.1862457315456083e-01  3.1588281174551669e-01  3.1315609110208031e-01  3.1045254112841786e-01  3.0777241186709853e-01  3.0513448033982554e-01  3.0251412654694720e-01  2.9990787340885489e-01  2.9734053807934313e-01  2.9479477694712580e-01  2.9228664216015399e-01  2.8979461658963979e-01  2.8731727975599347e-01  2.8487707596152489e-01  2.8245050630796831e-01  2.8003903757328480e-01  2.7764956818747405e-01  2.7529254192105235e-01  2.7295324528673232e-01  2.7064755081467951e-01  2.6835149734664965e-01  2.6608618256914035e-01  2.6382809562535953e-01  2.6159285604007965e-01  2.5937296331279730e-01  2.5716791859841548e-01  2.5499368004762824e-01  2.5283263421540442e-01  2.5070592855032958e-01  2.4859185489763949e-01  2.4650319080221281e-01  2.4443065218655660e-01  2.4237020634925277e-01  2.4033381814966037e-01  2.3831103388539002e-01  2.3631626734291739e-01  2.3433047047226482e-01  2.3236792645994245e-01  2.3041629609992120e-01  2.2848204765906979e-01  2.2656402989903454e-01  2.2467297160205982e-01  2.2279297754628391e-01  2.2092223042359299e-01  2.1907268503838292e-01  2.1723476316591409e-01  2.1542473368759738e-01  2.1362466096316551e-01  2.1184178393017486e-01  2.1006997800789640e-01  2.0832193928252776e-01  2.0658266580457962e-01  2.0486108392008878e-01  2.0314804240481749e-01  2.0144634540956582e-01  1.9976827631885949e-01  1.9809911217003617e-01  1.9644483111907196e-01  1.9480670261069646e-01  1.9319090114394205e-01  1.9158389799961215e-01  1.8998553542004992e-01  1.8840721553509998e-01  1.8683631950133250e-01  1.8528714003857727e-01  1.8374387246003468e-01  1.8221563275943878e-01  1.8069885423480428e-01  1.7920326897581548e-01  1.7771305323885647e-01  1.7623163765497152e-01  1.7477135917390180e-01  1.7331897744772373e-01  1.7188006211600804e-01  1.7045244106112778e-01  1.6904486825731144e-01  1.6764428891964869e-01  1.6624965510659293e-01  1.6487258367012192e-01  1.6350556648671274e-01  1.6215704433600669e-01  1.6081351585713655e-01  1.5947632355621963e-01  1.5815664229078469e-01  1.5684294839021945e-01  1.5554540163848554e-01  1.5425269932747365e-01  1.5297256297398726e-01  1.5170360034123326e-01  1.5045252102405049e-01  1.4920633262117275e-01  1.4796675493827918e-01  1.4674359255424452e-01  1.4552635859051619e-01  1.4432268009272445e-01  1.4312493703636378e-01  1.4193466583158648e-01  1.4076155139402613e-01  1.3959473792748855e-01  1.3843921528889039e-01  1.3729317904580721e-01  1.3616179038484155e-01  1.3503359160697007e-01  1.3391019194991380e-01  1.3280173357020944e-01  1.3169867088575585e-01  1.3060962165591170e-01  1.2952619884425587e-01  1.2845209870331972e-01  1.2738778386714392e-01  1.2633591479652434e-01  1.2528960037761067e-01  1.2425685558608497e-01  1.2322786492666310e-01  1.2220978808117126e-01  1.2119618963728866e-01  1.2019010510068152e-01  1.1919164830063099e-01  1.1820586194657688e-01  1.1722600629894522e-01  1.1626000458818604e-01  1.1529761632786382e-01  1.1433992023229880e-01  1.1339435266903893e-01  1.1245285377847290e-01  1.1151860433413729e-01  1.1059189756209857e-01  1.0967871443032605e-01  1.0877004437215880e-01  1.0786627993699517e-01  1.0697594798697067e-01  1.0609173241303273e-01  1.0521218648006682e-01  1.0434244219546886e-01  1.0347807148865176e-01  1.0262534111955302e-01  1.0177609750519860e-01  1.0093467262052089e-01  1.0009955544033268e-01  9.9275678651898472e-02  9.8454932734401410e-02  9.7637771635439380e-02  9.6831051220263087e-02  9.6027891381452846e-02  9.5231785887114395e-02  9.4440660720815708e-02  9.3660274496181722e-02  9.2883383915177739e-02  9.2116643791528396e-02  9.1352951621492262e-02  9.0596429283881549e-02  8.9846028219183291e-02  8.9105127168437631e-02  8.8366221180020105e-02  8.7630386669114005e-02  8.6904225440955024e-02  8.6181483836325679e-02  8.5467848969819654e-02  8.4757809387633817e-02  8.4053965186098673e-02  8.3356740049264980e-02  8.2668623856080314e-02  8.1983881104513295e-02  8.1302833763947979e-02  8.0630565339713800e-02  7.9961018615315349e-02  7.9296806157144059e-02  7.8638343535556141e-02  7.7989192590986189e-02  7.7343504406185551e-02  7.6700651325596100e-02  7.6065859296869306e-02  7.5434207552417532e-02  7.4806479265456374e-02  7.4187193105013538e-02  7.3571311469226533e-02  7.2959556885321145e-02  7.2356956351724164e-02  7.1757663543320638e-02  7.1162623480681864e-02  7.0572619753451027e-02  6.9990093363431163e-02  6.9410090725393198e-02  6.8835078481783094e-02  6.8267350253472942e-02  6.7700921965577296e-02  6.7140258856271090e-02  6.6582272351475499e-02  6.6029217307734797e-02  6.5481038567487590e-02  6.4940123701301061e-02  6.4401148090046670e-02  6.3864431892564133e-02  6.3334442261937324e-02  6.2806659185142083e-02  6.2283445731328019e-02  6.1763455407592781e-02  6.1250513183927498e-02  6.0739858094639977e-02  6.0235879240570118e-02  5.9733908140821287e-02  5.9236652789489259e-02  5.8743423136995633e-02  5.8256436910866329e-02  5.7770761187797767e-02  5.7287101052508914e-02  5.6809787532785400e-02  5.6334710031639229e-02  5.5865598363001187e-02  5.5398829241981612e-02  5.4936102484740325e-02  5.4477692096931291e-02  5.4025225847675939e-02  5.3574932395055355e-02  5.3127038251656773e-02  5.2684855046880294e-02  5.2244398658121936e-02  5.1807380535249026e-02  5.1374070691866787e-02  5.0946804096761764e-02  5.0521731032842562e-02  5.0098347133317928e-02  4.9679751863344980e-02  4.9263407051702630e-02  4.8852393643512071e-02  4.8443195708156396e-02  4.8037297991730260e-02  4.7634631148940329e-02  4.7237775112088834e-02  4.6842861727415648e-02  4.6449753350753790e-02  4.6061659672236126e-02  4.5676277281752595e-02  4.5296057079190995e-02  4.4916997486575884e-02  4.4539848057294315e-02  4.4167648054607739e-02  4.3797087704997122e-02  4.3429566416010611e-02  4.3064666077435379e-02  4.2704603043495513e-02  4.2345667298966785e-02  4.1988379869329233e-02  4.1635418581842325e-02  4.1284554562402431e-02  4.0938364215833328e-02  4.0593260195773466e-02  4.0249967048677539e-02  3.9911538744696787e-02  3.9574775900924918e-02  3.9239532053488506e-02  3.8908776641855367e-02  3.8579818118483815e-02  3.8252488086962681e-02  3.7928910382265736e-02  3.7606586385460813e-02  3.7286159972430018e-02  3.6969948440301950e-02  3.6655118653834244e-02  3.6342889374671603e-02  3.6033406957181061e-02  3.5727556627116783e-02  3.5423381769537056e-02  3.5123363309309888e-02  3.4824545860932678e-02  3.4528385345452328e-02  3.4233536116573107e-02  3.3940206497745200e-02  3.3650203241538418e-02  3.3360819883242146e-02  3.3074261851522714e-02  3.2789695195787172e-02  3.2508860715241304e-02  3.2229353831647135e-02  3.1951248612366229e-02  3.1676705632985989e-02  3.1403433051701554e-02  3.1133966667946385e-02  3.0865553480759665e-02  3.0599525115410357e-02  3.0335216667822421e-02  3.0074201180574137e-02  2.9813805348023515e-02  2.9554420612545953e-02  2.9298186674186148e-02  2.9042884690428004e-02  2.8790541958711752e-02  2.8538978727975776e-02  2.8289382948550195e-02  2.8041745238766028e-02  2.7796999074998253e-02  2.7552729065117680e-02  2.7311004803842433e-02  2.7069444548972900e-02  2.6829815613644541e-02  2.6591675047588879e-02  2.6356652542218074e-02  2.6122484660667418e-02  2.5889254315930917e-02  2.5658912860640044e-02  2.5429366549414398e-02  2.5200670003818603e-02  2.4974443825019798e-02  2.4748783515872667e-02  2.4524462501544123e-02  2.4301260102353284e-02  2.4080303051819112e-02  2.3860230500784198e-02  2.3642705754632311e-02  2.3425451622416150e-02  2.3209007031086359e-02  2.2994947129599555e-02  2.2781064027808929e-02  2.2567745031171961e-02  2.2356505046369060e-02  2.2145525763818976e-02  2.1936010839158915e-02  2.1726915665263517e-02  2.1519712822858351e-02  2.1312215640902233e-02  2.1106171891496370e-02  2.0899859507118639e-02  2.0694844230964474e-02  2.0489171514515559e-02  2.0284161999229590e-02  2.0079309392655266e-02  1.9875742556913510e-02  1.9671572327161119e-02  1.9467195418613609e-02  1.9263237160298676e-02  1.9058664233380124e-02  1.8854392617727426e-02  1.8648412420886485e-02  1.8441724111019919e-02  1.8233439524197696e-02  1.8024194940054212e-02  1.7812624267080565e-02  1.7599135286103070e-02  1.7381549192919208e-02  1.7160575376621932e-02  1.6934341815670727e-02  1.6702261734553862e-02  1.6462198773054985e-02  1.6210638246111318e-02  1.5943704429412342e-02  1.5644140352944098e-02  1.5309155038356110e-02  1.4922854497135934e-02  1.4394472933614224e-02  1.1983593347851299e-02  1.0386349987217512e-02  9.1638525842204187e-03  8.1612765047014771e-03  7.3231071518842531e-03  6.6005230386665418e-03  5.9836153538399403e-03  5.4376299206067430e-03  4.9500109686826570e-03  4.5284854039967567e-03  4.1391562269635120e-03  3.7944479915511813e-03  3.4782091745141110e-03  3.1926577807865940e-03  2.9359010381836601e-03  2.7090232127779841e-03  2.4979679315332362e-03  2.3082579208465416e-03  2.1323880259907402e-03  1.9725595500812822e-03  1.8275665573152476e-03  1.6991764877771140e-03  1.5795601331324008e-03  1.4720555390507696e-03  1.3732227608212000e-03  1.2856686625597931e-03  1.2048697320379638e-03  1.1311870264643501e-03  1.0647796082315494e-03  1.0064683186445645e-03  9.5324041339619949e-04  9.0441656480798598e-04  8.6139887176113917e-04  8.2283215196271543e-04  7.8945021789713244e-04  7.5932547176120533e-04  7.3310333972222055e-04  7.0992397064934540e-04  6.9036300562025203e-04  6.7317306940854673e-04  6.5894172385482918e-04  6.4663226955634140e-04  6.3634463296083452e-04  6.2825983905479064e-04  6.2212195025736260e-04  6.1719436834438424e-04  6.1368354526608073e-04  6.1138373146531969e-04  6.1012332332143686e-04  6.0966735653475012e-04  6.1012159758096012e-04  6.1148139228895694e-04  6.1368660260367627e-04  6.1712500049841289e-04  6.2188217354096592e-04  6.2822492568651803e-04  6.3637997343303390e-04  6.4664446134798156e-04  6.5893072316953040e-04  6.7314069281071767e-04  6.9031045138645076e-04  7.0984713251069458e-04  7.3299593554553531e-04  7.5917791580978466e-04  7.8924900305521483e-04  8.2255736023273700e-04  8.6102420695511358e-04  9.0391113004737584e-04  9.5191147507042077e-04  1.0042911835046985e-03  1.0639383371997620e-03  1.1286464515830865e-03  1.2015282713294638e-03  1.2809478245191575e-03  1.3669999354452875e-03  1.4639194408522511e-03  1.5685167290865412e-03  1.6844378230874220e-03  1.8078800066661234e-03  1.9463337065770386e-03  2.0959754386318100e-03  2.2603504151581548e-03  2.4348617448713352e-03  2.6264453648308498e-03  2.8250810553890472e-03  3.0446582764764168e-03  3.2811562676306884e-03  3.5368812829982450e-03  3.8033458757284334e-03  4.0801917266631215e-03  4.3736444283997760e-03  4.6793388690160396e-03  5.0042596518172821e-03  5.3363719097349492e-03  5.6706262419192544e-03  6.0113408200741514e-03  6.3478458684781943e-03  6.6951390545284019e-03  7.0348543071034123e-03  7.3642449697571685e-03  7.2899837306188561e-03  7.2200321935479731e-03  7.1537119303604667e-03  7.0893394149964374e-03  7.0264525173597894e-03  6.9644703055637544e-03  6.9038863781150008e-03  6.8441570037575368e-03  6.7849315237584343e-03  6.7267796976017155e-03  6.6691422954067922e-03  6.6122915788990001e-03  6.5560770714182797e-03  6.5007367558599146e-03  6.4457170243402825e-03  6.3914529970796694e-03  6.3374027333121261e-03  6.2839209748660075e-03  6.2308920709329132e-03  6.1786567884788484e-03  6.1266895589768442e-03  6.0753287498217850e-03  6.0242493002134441e-03  5.9738431032953926e-03  5.9237084717177237e-03  5.8739579860126751e-03  5.8249801248189447e-03  5.7762899672379256e-03  5.7280239826050872e-03  5.6801793838343910e-03  5.6330085602295668e-03  5.5860964209639022e-03  5.5396182596359296e-03  5.4934324484846612e-03  5.4478821927654453e-03  5.4025323866071541e-03  5.3576167913981960e-03  5.3130554795862523e-03  5.2691133681159333e-03  5.2253584268425997e-03  5.1818057559211298e-03  5.1388279727044928e-03  5.0960587002173612e-03  5.0536811786522006e-03  5.0115870414853330e-03  4.9700800342246942e-03  4.9287773789699505e-03  4.8880277888227429e-03  4.8474562429351884e-03  4.8072756289288202e-03  4.7674303849259041e-03  4.7281000518577896e-03  4.6888866461574554e-03  4.6498326101308621e-03  4.6112873574822360e-03  4.5729498336208518e-03  4.5351200318655190e-03  4.4974721639902144e-03  4.4601524466346782e-03  4.4231826241860756e-03  4.3867032518248150e-03  4.3504090566327857e-03  4.3143122300683904e-03  4.2786841311932000e-03  4.2432032376479500e-03  4.2080084462174936e-03  4.1731154800615624e-03  4.1387154695001534e-03  4.1044979753227821e-03  4.0704313142060720e-03  4.0367952409189221e-03  4.0033287325875119e-03  3.9700724374868825e-03  3.9372701738007616e-03  3.9046561379192640e-03  3.8722532060347123e-03  3.8403365247825323e-03  3.8085983810442797e-03  3.7770884011322373e-03  3.7458405997677934e-03  3.7149826623282503e-03  3.6842518206406487e-03  3.6537818331286985e-03  3.6236907295799513e-03  3.5936602893422466e-03  3.5639328411608911e-03  3.5343366101164425e-03  3.5050265893783973e-03  3.4759752248627539e-03  3.4473155902894109e-03  3.4187620459183465e-03  3.3903338251256940e-03  3.3622635879433779e-03  3.3343120408847213e-03  3.3066011400986889e-03  3.2790623153476283e-03  3.2519032950021742e-03  3.2248736182625827e-03  3.1982052079684866e-03  3.1716526324703895e-03  3.1453558544323346e-03  3.1192785941229441e-03  3.0935382649511472e-03  3.0678744005375085e-03  3.0423146895949115e-03  3.0170874500297846e-03  2.9919956599819401e-03  2.9672361169966422e-03  2.9425955931925382e-03  2.9181612674859256e-03  2.8939547563096683e-03  2.8700634028952015e-03  2.8462877006940283e-03  2.8226378364228730e-03  2.7992875429220542e-03  2.7760254419799948e-03  2.7529485644426760e-03  2.7300610172939980e-03  2.7074957135660494e-03  2.6850483814715442e-03  2.6626893141813109e-03  2.6405784402698841e-03  2.6185887949787814e-03  2.5968802288395087e-03  2.5752611126541071e-03  2.5538237355703574e-03  2.5325507787785787e-03  2.5115859177007528e-03  2.4907207334666278e-03  2.4699698499362965e-03  2.4495232356763715e-03  2.4292084053209027e-03  2.4089907038302048e-03  2.3889872698482327e-03  2.3690952492121404e-03  2.3494625136810249e-03  2.3298985991122762e-03  2.3105123711307522e-03  2.2912672138117930e-03  2.2722734989014306e-03  2.2533337236982768e-03  2.2346369881942199e-03  2.2159891274863629e-03  2.1975048854579520e-03  2.1791437339439969e-03  2.1610441084013964e-03  2.1430216911944547e-03  2.1252260886488513e-03  2.1075269213412622e-03  2.0899025755080664e-03  2.0724881727646302e-03  2.0551936131966869e-03  2.0381218739262000e-03  2.0211058585104247e-03  2.0041571993490393e-03  1.9874241344530240e-03  1.9707833696999601e-03  1.9543562573181429e-03  1.9380014885551013e-03  1.9217853840044483e-03  1.9057194176248502e-03  1.8898735083972362e-03  1.8740926934093741e-03  1.8583797449502502e-03  1.8428651303238636e-03  1.8274175767587512e-03  1.8120951772758870e-03  1.7968755082723542e-03  1.7818532252055800e-03  1.7668972370271944e-03  1.7521334923369858e-03  1.7374334681420655e-03  1.7228296808547800e-03  1.7084198614572277e-03  1.6940598574313726e-03  1.6798413813523818e-03  1.6657106068292118e-03  1.6516648352359849e-03  1.6377901208666093e-03  1.6239750144927125e-03  1.6103468620564012e-03  1.5967665982022539e-03  1.5833179485038765e-03  1.5699654678847448e-03  1.5567972539149569e-03  1.5436761341316219e-03  1.5307221916361371e-03  1.5178006577289088e-03  1.5049966595173149e-03  1.4922846800709930e-03  1.4797509639140169e-03  1.4672678283664438e-03  1.4549362873603599e-03  1.4426648081956336e-03  1.4304490991326963e-03  1.4183845227486833e-03  1.4063701765800892e-03  1.3944417977489435e-03  1.3826084671585762e-03  1.3709410380872021e-03  1.3593373230690868e-03  1.3477840478182596e-03  1.3363698460672081e-03  1.3250079688341637e-03  1.3137071925432770e-03  1.3025281729301555e-03  1.2914119588718805e-03  1.2804493701544589e-03  1.2695314504865968e-03  1.2587071180416047e-03  1.2479396627290721e-03  1.2373111880588270e-03  1.2267301144591376e-03  1.2162410401709541e-03  1.2058888278731524e-03  1.1955655129809646e-03  1.1853458547142193e-03  1.1751973371089855e-03  1.1651129658684391e-03  1.1551535839052348e-03  1.1452392499531679e-03  1.1354582279266016e-03  1.1257107208737461e-03  1.1160651514795178e-03  1.1064632249965540e-03  1.0969584728563392e-03  1.0875136585345470e-03  1.0781975038608768e-03  1.0689184304747683e-03  1.0597235760260175e-03  1.0505716765400613e-03  1.0414706756716444e-03  1.0324817076563476e-03  1.0235222553076685e-03  1.0146463670198244e-03  1.0058409156120740e-03  9.9714712381459561e-04  9.8848518413870655e-04  9.7991677034820574e-04  9.7137426992825401e-04  9.6294076816229042e-04  9.5453023746545418e-04  9.4619325779633724e-04  9.3791112181608861e-04  9.2974034199737408e-04  9.2159640590869999e-04  9.1349382174681017e-04  9.0549993165130389e-04  8.9753341676824399e-04  8.8960506300795976e-04  8.8178335567579852e-04  8.7400093328107579e-04  8.6631130615157331e-04  8.5865475678465082e-04  8.5105330001753311e-04  8.4354232403005731e-04  8.3604576391838677e-04  8.2859589070391406e-04  8.2119009514206270e-04  8.1388039528538418e-04  8.0659901174205673e-04  7.9940923447316349e-04  7.9224452903488155e-04  7.8514790863102831e-04  7.7810439703343711e-04  7.7114583683818359e-04  7.6421288763796975e-04  7.5732273207161345e-04  7.5051686372344499e-04  7.4372723348208557e-04  7.3697798075662727e-04  7.3027102835926025e-04  7.2364601816049968e-04  7.1704472826177056e-04  7.1051955808551157e-04  7.0401330044027788e-04  6.9756222788194897e-04  6.9115687162708