<?xml version="1.0"?>
<VTKFile type="UnstructuredGrid"  version="0.1"  >
<UnstructuredGrid>
<Piece  NumberOfPoints="5023" NumberOfCells="7844">
<Points>
<DataArray  type="Float64"  NumberOfComponents="3"  format="ascii">0 0.01 0  0 0 0  0.01 0 0  0.02 0 0  0.03 0 0  0.04 0 0  0.05 0 0  0.06 0 0  0.07000000000000001 0 0  0.08 0 0  0.09 0 0  0.1 0 0  0.11 0 0  0.12 0 0  0.13 0 0  0.14 0 0  0.15 0 0  0.16 0 0  0.17 0 0  0.18 0 0  0.19 0 0  0.2 0 0  0.21 0 0  0.22 0 0  0.23 0 0  0.24 0 0  0.25 0 0  0.26 0 0  0.27 0 0  0.28 0 0  0.29 0 0  0.3 0 0  0.31 0 0  0.32 0 0  0.33 0 0  0.34 0 0  0.35 0 0  0.36 0 0  0.37 0 0  0.38 0 0  0.39 0 0  0.4 0 0  0.41 0 0  0.42 0 0  0.43 0 0  0.44 0 0  0.45 0 0  0.46 0 0  0.47 0 0  0.48 0 0  0.49 0 0  0.5 0 0  0.51 0 0  0.52 0 0  0.53 0 0  0.54 0 0  0.55 0 0  0.5600000000000001 0 0  0.57 0 0  0.58 0 0  0.59 0 0  0.6 0 0  0.61 0 0  0.62 0 0  0.63 0 0  0.64 0 0  0.65 0 0  0.66 0 0  0.67 0 0  0.68 0 0  0.6899999999999999 0 0  0.7 0 0  0.71 0 0  0.72 0 0  0.73 0 0  0.74 0 0  0.75 0 0  0.76 0 0  0.77 0 0  0.78 0 0  0.79 0 0  0.8 0 0  0.8100000000000001 0 0  0.82 0 0  0.83 0 0  0.84 0 0  0.85 0 0  0.86 0 0  0.87 0 0  0.88 0 0  0.89 0 0  0.9 0 0  0.91 0 0  0.92 0 0  0.93 0 0  0.9399999999999999 0 0  0.95 0 0  0.96 0 0  0.97 0 0  0.98 0 0  0.99 0 0  1 0 0  1.01 0 0  1.02 0 0  1.03 0 0  1.04 0 0  1.05 0 0  1.06 0 0  1.07 0 0  1.08 0 0  1.09 0 0  1.1 0 0  1.11 0 0  1.12 0 0  1.13 0 0  1.14 0 0  1.15 0 0  1.16 0 0  1.17 0 0  1.18 0 0  1.19 0 0  1.2 0 0  1.21 0 0  1.22 0 0  1.23 0 0  1.24 0 0  1.25 0 0  1.26 0 0  1.27 0 0  1.28 0 0  1.29 0 0  1.3 0 0  1.31 0 0  1.32 0 0  1.33 0 0  1.34 0 0  1.35 0 0  1.36 0 0  1.37 0 0  1.38 0 0  1.39 0 0  1.4 0 0  1.41 0 0  1.42 0 0  1.43 0 0  1.44 0 0  1.45 0 0  1.46 0 0  1.47 0 0  1.48 0 0  1.49 0 0  1.5 0 0  1.51 0 0  1.52 0 0  1.53 0 0  1.54 0 0  1.55 0 0  1.56 0 0  1.57 0 0  1.58 0 0  1.59 0 0  1.6 0 0  1.61 0 0  1.62 0 0  1.63 0 0  1.64 0 0  1.65 0 0  1.66 0 0  1.67 0 0  1.68 0 0  1.69 0 0  1.7 0 0  1.71 0 0  1.72 0 0  1.73 0 0  1.74 0 0  1.75 0 0  1.76 0 0  1.77 0 0  1.78 0 0  1.79 0 0  1.8 0 0  1.81 0 0  1.82 0 0  1.83 0 0  1.84 0 0  1.85 0 0  1.86 0 0  1.87 0 0  1.88 0 0  1.89 0 0  1.9 0 0  1.91 0 0  1.92 0 0  1.93 0 0  1.94 0 0  1.95 0 0  1.96 0 0  1.97 0 0  1.98 0 0  1.99 0 0  2 0 0  2.01 0 0  2.02 0 0  2.03 0 0  2.04 0 0  2.05 0 0  2.06 0 0  2.07 0 0  2.08 0 0  2.09 0 0  2.1 0 0  2.11 0 0  2.12 0 0  2.13 0 0  2.14 0 0  2.15 0 0  2.16 0 0  2.17 0 0  2.18 0 0  2.19 0 0  2.2 0 0  2.21 0 0  2.22 0 0  2.23 0 0  2.24 0 0  2.25 0 0  2.26 0 0  2.27 0 0  2.28 0 0  2.29 0 0  2.3 0 0  2.31 0 0  2.32 0 0  2.33 0 0  2.34 0 0  2.35 0 0  2.36 0 0  2.37 0 0  2.38 0 0  2.39 0 0  2.4 0 0  2.41 0 0  2.42 0 0  2.43 0 0  2.44 0 0  2.45 0 0  2.46 0 0  2.47 0 0  2.48 0 0  2.49 0 0  2.5 0 0  2.51 0 0  2.52 0 0  2.53 0 0  2.54 0 0  2.55 0 0  2.56 0 0  2.57 0 0  2.58 0 0  2.59 0 0  2.6 0 0  2.61 0 0  2.62 0 0  2.63 0 0  2.64 0 0  2.65 0 0  2.66 0 0  2.67 0 0  2.68 0 0  2.69 0 0  2.7 0 0  2.71 0 0  2.72 0 0  2.73 0 0  2.74 0 0  2.75 0 0  2.76 0 0  2.77 0 0  2.78 0 0  2.79 0 0  2.8 0 0  2.81 0 0  2.82 0 0  2.83 0 0  2.84 0 0  2.85 0 0  2.86 0 0  2.87 0 0  2.88 0 0  2.89 0 0  2.9 0 0  2.91 0 0  2.92 0 0  2.93 0 0  2.94 0 0  2.95 0 0  2.96 0 0  2.97 0 0  2.98 0 0  2.99 0 0  3 0 0  3.01 0 0  3.02 0 0  3.03 0 0  3.04 0 0  3.05 0 0  3.06 0 0  3.07 0 0  3.08 0 0  3.09 0 0  3.1 0 0  3.11 0 0  3.12 0 0  3.13 0 0  3.14 0 0  3.15 0 0  3.16 0 0  3.17 0 0  3.18 0 0  3.19 0 0  3.2 0 0  3.21 0 0  3.22 0 0  3.23 0 0  3.24 0 0  3.25 0 0  3.26 0 0  3.27 0 0  3.28 0 0  3.29 0 0  3.3 0 0  3.31 0 0  3.32 0 0  3.33 0 0  3.34 0 0  3.35 0 0  3.36 0 0  3.37 0 0  3.38 0 0  3.39 0 0  3.4 0 0  3.41 0 0  3.42 0 0  3.43 0 0  3.44 0 0  3.45 0 0  3.46 0 0  3.47 0 0  3.48 0 0  3.49 0 0  3.5 0 0  3.51 0 0  3.52 0 0  3.53 0 0  3.54 0 0  3.55 0 0  3.56 0 0  3.57 0 0  3.58 0 0  3.59 0 0  3.6 0 0  3.61 0 0  3.62 0 0  3.63 0 0  3.64 0 0  3.65 0 0  3.66 0 0  3.67 0 0  3.68 0 0  3.69 0 0  3.7 0 0  3.71 0 0  3.72 0 0  3.73 0 0  3.74 0 0  3.75 0 0  3.76 0 0  3.77 0 0  3.78 0 0  3.79 0 0  3.8 0 0  3.81 0 0  3.82 0 0  3.83 0 0  3.84 0 0  3.85 0 0  3.86 0 0  3.87 0 0  3.88 0 0  3.89 0 0  3.9 0 0  3.91 0 0  3.92 0 0  3.93 0 0  3.94 0 0  3.95 0 0  3.96 0 0  3.97 0 0  3.98 0 0  3.99 0 0  4 0 0  4.01 0 0  4.02 0 0  4.03 0 0  4.04 0 0  4.05 0 0  4.06 0 0  4.07 0 0  4.08 0 0  4.09 0 0  4.1 0 0  4.11 0 0  4.12 0 0  4.13 0 0  4.14 0 0  4.15 0 0  4.16 0 0  4.17 0 0  4.18 0 0  4.19 0 0  4.2 0 0  4.21 0 0  4.22 0 0  4.23 0 0  4.24 0 0  4.25 0 0  4.26 0 0  4.27 0 0  4.28 0 0  4.29 0 0  4.3 0 0  4.31 0 0  4.32 0 0  4.33 0 0  4.34 0 0  4.35 0 0  4.36 0 0  4.37 0 0  4.38 0 0  4.39 0 0  4.4 0 0  4.41 0 0  4.42 0 0  4.43 0 0  4.44 0 0  4.45 0 0  4.46 0 0  4.47 0 0  4.48 0 0  4.49 0 0  4.5 0 0  4.51 -0.06282151815625525 0  4.52 -0.1255810390586241 0  4.53 -0.1882166266370302 0  4.54 -0.2506664671286087 0  4.55 -0.3128689300804606 0  4.56 -0.3747626291714468 0  4.57 -0.4362864827930868 0  4.58 -0.49737977432971 0  4.59 -0.5579822120784577 0  4.6 -0.6180339887498927 0  4.61 -0.6774758404905846 0  4.62 -0.7362491053693565 0  4.63 -0.7942957812695606 0  4.64 -0.8515585831301434 0  4.65 -0.9079809994790955 0  4.66 -0.9635073482034314 0  4.67 -1.018082831500742 0  4.68 -1.071653589957992 0  4.69 -1.124166755704263 0  4.7 -1.175570504584947 0  4.71 -1.225814107305953 0  4.72 -1.274847979497378 0  4.73 -1.322623730647306 0  4.74 -1.369094211857378 0  4.75 -1.414213562373095 0  4.76 -1.457937254842822 0  4.77 -1.500222139260917 0  4.78 -1.541026485551579 0  4.79 -1.580310024751381 0  4.8 -1.618033988749894 0  4.81 -1.654161148549122 0  4.82 -1.688655851004031 0  4.83 -1.721484054007887 0  4.84 -1.752613360087727 0  4.85 -1.782013048376735 0  4.86 -1.80965410493204 0  4.87 -1.835509251367963 0  4.88 -1.859552971776502 0  4.89 -1.88176153790845 0  4.9 -1.902113032590308 0  4.91 -1.920587371353886 0  4.92 -1.937166322257262 0  4.93 -1.951833523877494 0  4.94 -1.964574501457378 0  4.95 -1.975376681190276 0  4.96 -1.984229402628956 0  4.97 -1.99112392920616 0  4.98 -1.996053456856543 0  4.99 -1.999013120731463 0  5 -2 0  5.01 -1.999013120731463 0  5.02 -1.996053456856543 0  5.03 -1.99112392920616 0  5.04 -1.984229402628956 0  5.05 -1.975376681190276 0  5.06 -1.964574501457378 0  5.07 -1.951833523877494 0  5.08 -1.937166322257262 0  5.09 -1.920587371353886 0  5.1 -1.902113032590308 0  5.11 -1.88176153790845 0  5.12 -1.859552971776503 0  5.13 -1.835509251367963 0  5.14 -1.80965410493204 0  5.15 -1.782013048376735 0  5.16 -1.752613360087727 0  5.17 -1.721484054007888 0  5.18 -1.688655851004031 0  5.19 -1.654161148549123 0  5.2 -1.618033988749894 0  5.21 -1.580310024751381 0  5.22 -1.54102648555158 0  5.23 -1.500222139260918 0  5.24 -1.457937254842822 0  5.25 -1.414213562373095 0  5.26 -1.369094211857378 0  5.27 -1.322623730647306 0  5.28 -1.274847979497378 0  5.29 -1.225814107305953 0  5.3 -1.175570504584947 0  5.31 -1.124166755704263 0  5.32 -1.071653589957992 0  5.33 -1.018082831500742 0  5.34 -0.9635073482034312 0  5.35 -0.9079809994790962 0  5.36 -0.8515585831301434 0  5.37 -0.7942957812695605 0  5.38 -0.7362491053693571 0  5.39 -0.6774758404905852 0  5.4 -0.6180339887498926 0  5.41 -0.5579822120784582 0  5.42 -0.4973797743297105 0  5.43 -0.4362864827930872 0  5.44 -0.3747626291714474 0  5.45 -0.3128689300804611 0  5.46 -0.2506664671286091 0  5.47 -0.1882166266370305 0  5.48 -0.1255810390586245 0  5.49 -0.06282151815625558 0  5.5 -2.449293598294706e-16 0  5.51 0 0  5.52 0 0  5.53 0 0  5.54 0 0  5.55 0 0  5.56 0 0  5.57 0 0  5.58 0 0  5.59 0 0  5.6 0 0  5.61 0 0  5.62 0 0  5.63 0 0  5.64 0 0  5.65 0 0  5.66 0 0  5.67 0 0  5.68 0 0  5.69 0 0  5.7 0 0  5.71 0 0  5.72 0 0  5.73 0 0  5.74 0 0  5.75 0 0  5.76 0 0  5.77 0 0  5.78 0 0  5.79 0 0  5.8 0 0  5.81 0 0  5.82 0 0  5.83 0 0  5.84 0 0  5.85 0 0  5.86 0 0  5.87 0 0  5.88 0 0  5.89 0 0  5.9 0 0  5.91 0 0  5.92 0 0  5.93 0 0  5.94 0 0  5.95 0 0  5.96 0 0  5.97 0 0  5.98 0 0  5.99 0 0  6 0 0  6.01 0 0  6.02 0 0  6.03 0 0  6.04 0 0  6.05 0 0  6.06 0 0  6.07 0 0  6.08 0 0  6.09 0 0  6.1 0 0  6.11 0 0  6.12 0 0  6.13 0 0  6.14 0 0  6.15 0 0  6.16 0 0  6.17 0 0  6.18 0 0  6.19 0 0  6.2 0 0  6.21 0 0  6.22 0 0  6.23 0 0  6.24 0 0  6.25 0 0  6.26 0 0  6.27 0 0  6.28 0 0  6.29 0 0  6.3 0 0  6.31 0 0  6.32 0 0  6.33 0 0  6.34 0 0  6.35 0 0  6.36 0 0  6.37 0 0  6.38 0 0  6.39 0 0  6.4 0 0  6.41 0 0  6.42 0 0  6.43 0 0  6.44 0 0  6.45 0 0  6.46 0 0  6.47 0 0  6.48 0 0  6.49 0 0  6.5 0 0  6.51 0 0  6.52 0 0  6.53 0 0  6.54 0 0  6.55 0 0  6.56 0 0  6.57 0 0  6.58 0 0  6.59 0 0  6.6 0 0  6.61 0 0  6.62 0 0  6.63 0 0  6.64 0 0  6.65 0 0  6.66 0 0  6.67 0 0  6.68 0 0  6.69 0 0  6.7 0 0  6.71 0 0  6.72 0 0  6.73 0 0  6.74 0 0  6.75 0 0  6.76 0 0  6.77 0 0  6.78 0 0  6.79 0 0  6.8 0 0  6.81 0 0  6.82 0 0  6.83 0 0  6.84 0 0  6.85 0 0  6.86 0 0  6.87 0 0  6.88 0 0  6.89 0 0  6.9 0 0  6.91 0 0  6.92 0 0  6.93 0 0  6.94 0 0  6.95 0 0  6.96 0 0  6.97 0 0  6.98 0 0  6.99 0 0  7 0 0  7.01 0 0  7.02 0 0  7.03 0 0  7.04 0 0  7.05 0 0  7.06 0 0  7.07 0 0  7.08 0 0  7.09 0 0  7.1 0 0  7.11 0 0  7.12 0 0  7.13 0 0  7.14 0 0  7.15 0 0  7.16 0 0  7.17 0 0  7.18 0 0  7.19 0 0  7.2 0 0  7.21 0 0  7.22 0 0  7.23 0 0  7.24 0 0  7.25 0 0  7.26 0 0  7.27 0 0  7.28 0 0  7.29 0 0  7.3 0 0  7.31 0 0  7.32 0 0  7.33 0 0  7.34 0 0  7.35 0 0  7.36 0 0  7.37 0 0  7.38 0 0  7.39 0 0  7.4 0 0  7.41 0 0  7.42 0 0  7.43 0 0  7.44 0 0  7.45 0 0  7.46 0 0  7.47 0 0  7.48 0 0  7.49 0 0  7.5 0 0  7.51 0 0  7.52 0 0  7.53 0 0  7.54 0 0  7.55 0 0  7.56 0 0  7.57 0 0  7.58 0 0  7.59 0 0  7.6 0 0  7.61 0 0  7.62 0 0  7.63 0 0  7.64 0 0  7.65 0 0  7.66 0 0  7.67 0 0  7.68 0 0  7.69 0 0  7.7 0 0  7.71 0 0  7.72 0 0  7.73 0 0  7.74 0 0  7.75 0 0  7.76 0 0  7.77 0 0  7.78 0 0  7.79 0 0  7.8 0 0  7.81 0 0  7.82 0 0  7.83 0 0  7.84 0 0  7.85 0 0  7.86 0 0  7.87 0 0  7.88 0 0  7.89 0 0  7.9 0 0  7.91 0 0  7.92 0 0  7.93 0 0  7.94 0 0  7.95 0 0  7.96 0 0  7.97 0 0  7.98 0 0  7.99 0 0  8 0 0  8.01 0 0  8.02 0 0  8.029999999999999 0 0  8.039999999999999 0 0  8.0500000
[...]
<PointData  Scalars="f_4076"> 
<DataArray  type="Float64"  Name="f_4076"  format="ascii">1.0000000000000000e+00  1.0000000000000000e+00  -3.5806950381584123e-02  2.5086948569473095e-02  1.5993928634443873e-02  1.6936114635044155e-02  1.1964823377725062e-02  1.1012700394656252e-02  8.3820183404299097e-03  8.7378556244114471e-03  6.9659006390885318e-03  6.8539024684666425e-03  5.7561620667336061e-03  5.6008074573458879e-03  4.8496980828772775e-03  4.9536786515017115e-03  4.4064600960851850e-03  4.2423833195828018e-03  3.7954426537453439e-03  3.8569116347950509e-03  3.4746112044217693e-03  3.3826958458415966e-03  3.0666351742575783e-03  3.0954266137798443e-03  2.8921169051930669e-03  2.7044099908535139e-03  2.7291750724061387e-03  2.5461722897383346e-03  2.4821762120963956e-03  2.3413831067160963e-03  2.3602401115193007e-03  2.2280289829176209e-03  2.1748182680539612e-03  2.0629682564334870e-03  2.0770493099002119e-03  1.9954426064426570e-03  1.8946594351579396e-03  1.8977836614012019e-03  1.7988314391464792e-03  1.7952696068412937e-03  1.7034120145890807e-03  1.7166931502061338e-03  1.6446699069608505e-03  1.6233742100191905e-03  1.5546344812174197e-03  1.5647614243551537e-03  1.4918008842790644e-03  1.4890915669557505e-03  1.4372391122492679e-03  1.4080134950237436e-03  1.3562046435660728e-03  1.3617093652729586e-03  1.3259101993045052e-03  1.2811366242977151e-03  1.2770543748701901e-03  1.2337581603330593e-03  1.2390361715752959e-03  1.1961158114632356e-03  1.1850714245594106e-03  1.1444822639300506e-03  1.1506917466339135e-03  1.1108557586665532e-03  1.1021226094704770e-03  1.0650317344846839e-03  1.0688684233734901e-03  1.0370056050599170e-03  1.0130026466820276e-03  1.0167764216101596e-03  9.9169822073228884e-04  9.7573000986580171e-04  9.4589466795901044e-04  9.4964297520499532e-04  9.1675825334879241e-04  9.2037410049648891e-04  8.9263238432984570e-04  8.8204122958239299e-04  8.5980303592477663e-04  8.5872732493534349e-04  8.3154504423394154e-04  8.3519474728458863e-04  8.1322996704891507e-04  8.0990106165982755e-04  7.9055698568009135e-04  7.7454782641631472e-04  7.7729912427613079e-04  7.5220320804116677e-04  7.4607804613611517e-04  7.2667830869723143e-04  7.2598141776781210e-04  7.0404226388002720e-04  7.0704224019962718e-04  6.8942953227856354e-04  6.8682218215458278e-04  6.7188807896937340e-04  6.5941172677773374e-04  6.6143523551259156e-04  6.4434717366852463e-04  6.3730572283313201e-04  6.2042252637711239e-04  6.2230311117761155e-04  6.1053532277087214e-04  5.9600871563175002e-04  5.9558071077102338e-04  5.7934891521587632e-04  5.8095293531783222e-04  5.6820204276021059e-04  5.5970641118632369e-04  5.4696640401971620e-04  5.4856244169611246e-04  5.3760481852861556e-04  5.2419033177831143e-04  5.2402624359721296e-04  5.0961269495307263e-04  5.1103186297597779e-04  4.9986417767454655e-04  4.8967856160846623e-04  4.9098217735270657e-04  4.8296948883633418e-04  4.7420315928575193e-04  4.6455815220674526e-04  4.6333441721959235e-04  4.5173967807506609e-04  4.5373932953422346e-04  4.4087845780724000e-04  4.4280500011730856e-04  4.3208969721288836e-04  4.3005062684543625e-04  4.2030372520842762e-04  4.1235576058506882e-04  4.1278117504577473e-04  4.0061494816966950e-04  4.0240709998323195e-04  3.9200722661470193e-04  3.9053543406603801e-04  3.8363621353618507e-04  3.7604901926960050e-04  3.7461598387456674e-04  3.6583092302268756e-04  3.6714204160889834e-04  3.5732634343484506e-04  3.5695722889849703e-04  3.4994861262736203e-04  3.4587070156985253e-04  3.3830862312157306e-04  3.3903020585868599e-04  3.3285405866870758e-04  3.2617253573924356e-04  3.2491341042519125e-04  3.1658848808310651e-04  3.1780582481511497e-04  3.1000355770393874e-04  3.0815847042826205e-04  3.0055641640698306e-04  3.0135628550781365e-04  2.9455438259100140e-04  2.9392592633226936e-04  2.8752151874768256e-04  2.8250585169065377e-04  2.8316392643557909e-04  2.7696708062256692e-04  2.7289574302176770e-04  2.6775969186536021e-04  2.6830118603779355e-04  2.6301540632713845e-04  2.5829559401222669e-04  2.5850588202737602e-04  2.5151582285760151e-04  2.5255170430480794e-04  2.4648678233795768e-04  2.4425076934973334e-04  2.3849454668168002e-04  2.3931328867787981e-04  2.3533317323871198e-04  2.2967550242022230e-04  2.3034782204875672e-04  2.2538944826819133e-04  2.2311433832276618e-04  2.1824196388599642e-04  2.1881369674642165e-04  2.1508629795992393e-04  2.1055199947559044e-04  2.0975458128077334e-04  2.0496084385117824e-04  2.0561001528449527e-04  2.0195766647568736e-04  1.9741413692564116e-04  1.9798962821325906e-04  1.9261326867201417e-04  1.9319827523199451e-04  1.8846883269669145e-04  1.8610504249206176e-04  1.8256608749280217e-04  1.8308398867373170e-04  1.8028198096659183e-04  1.7613874936051922e-04  1.7661671134690542e-04  1.7213058435616873e-04  1.7201995136470642e-04  1.6819443908696116e-04  1.6508133202934708e-04  1.6554766717456447e-04  1.6161346976701347e-04  1.5981996612864313e-04  1.5678876935537099e-04  1.5723154736507986e-04  1.5461336068846939e-04  1.5095315136160630e-04  1.5138356193956140e-04  1.4736112874814185e-04  1.4757407474700558e-04  1.4446945616973113e-04  1.4235728258808045e-04  1.3988217042165818e-04  1.3972435321184032e-04  1.3632699668444478e-04  1.3679864368501169e-04  1.3344333368007095e-04  1.3331792718072126e-04  1.3088481867622520e-04  1.2908820369473176e-04  1.2632304698242548e-04  1.2616832041710739e-04  1.2291271854341547e-04  1.2334419199780183e-04  1.2148402041490543e-04  1.1856223571135399e-04  1.1885192355253706e-04  1.1646303586094866e-04  1.1474258362416925e-04  1.1249436585799415e-04  1.1281837195722578e-04  1.1074173997826889e-04  1.0801895581298968e-04  1.0824689020053542e-04  1.0633840761085353e-04  1.0424973762755989e-04  1.0386883922125941e-04  1.0151592163663892e-04  1.0184171154986011e-04  9.9584506840621069e-05  9.8647061235360145e-05  9.6539101353059414e-05  9.6821239897213951e-05  9.5146632921969270e-05  9.3131550623472219e-05  9.3348535044034036e-05  9.1391558265901368e-05  9.0637000773401857e-05  8.8360650565376961e-05  8.8676030829360714e-05  8.6203022421383328e-05  8.6505415781349318e-05  8.4418248430647111e-05  8.3477397040686394e-05  8.1892121576302866e-05  8.2123645621290899e-05  8.0756086906927913e-05  7.8841991128131267e-05  7.9067587381049026e-05  7.6955317145567442e-05  7.7070763935807509e-05  7.5419976103967054e-05  7.4318222918568183e-05  7.2965190666966214e-05  7.3107896337951429e-05  7.1679167025111355e-05  7.0381573168633123e-05  7.0549448280452315e-05  6.9158823441900608e-05  6.8193562791121068e-05  6.6784263122930728e-05  6.6943500884006552e-05  6.5802859171622727e-05  6.4355580076993292e-05  6.4466986541032815e-05  6.3166147638861936e-05  6.1988421754219551e-05  6.2113263483357941e-05  6.0675334601143021e-05  5.9525368826686528e-05  5.9690554053119491e-05  5.8566573372059556e-05  5.7693338775637735e-05  5.6587965829957703e-05  5.6718409576990130e-05  5.5417373182263549e-05  5.4608302127486227e-05  5.4786839118103744e-05  5.3460420569447649e-05  5.3365699915060020e-05  5.2215025541494789e-05  5.1476729102723657e-05  5.0607943983511542e-05  5.0738259850352554e-05  4.9860135579665015e-05  4.8799551311637996e-05  4.8913930824282552e-05  4.7880715772019301e-05  4.7481710319534096e-05  4.6277110885490959e-05  4.6443741749989314e-05  4.5139013215715160e-05  4.5298317287672771e-05  4.4200695588292129e-05  4.3706618208377181e-05  4.2875309129972026e-05  4.2996667308054625e-05  4.2280186542966087e-05  4.1278010790927302e-05  4.1396008900156838e-05  4.0292193772817243e-05  4.0352446075916435e-05  3.9491301502517782e-05  3.8916690062298229e-05  3.8211212297876141e-05  3.8285626530428866e-05  3.7540547810828116e-05  3.6863854333654632e-05  3.6951423266966763e-05  3.6225857701114985e-05  3.5721414757276110e-05  3.4983790143810068e-05  3.5066706911686312e-05  3.4476549954293565e-05  3.3734307697285029e-05  3.3691745379089959e-05  3.2874571658596441e-05  3.2957028248880282e-05  3.2276698834663410e-05  3.1839323357839113e-05  3.1201913560835265e-05  3.1289797177556901e-05  3.0727748817714540e-05  3.0033107733332118e-05  2.9941739804462350e-05  2.9252740852346715e-05  2.9348039017658961e-05  2.8894464316320606e-05  2.8246224276454193e-05  2.8321982351325704e-05  2.7720008392207589e-05  2.7396122243601265e-05  2.6857969346272156e-05  2.6934978408239613e-05  2.6518284358417315e-05  2.5896292450030244e-05  2.5848446563739790e-05  2.5225685632667418e-05  2.5313544608280165e-05  2.4856839833763043e-05  2.4285963455210332e-05  2.4356357459588268e-05  2.3908723811618960e-05  2.3380756326335375e-05  2.3425540934744982e-05  2.3016241694384959e-05  2.2558477245646617e-05  2.2596502541257074e-05  2.2102588672205667e-05  2.1714062517709050e-05  2.1767394218114153e-05  2.1290968215525594e-05  2.0991154332569053e-05  2.0606026186749538e-05  2.0575144037468505e-05  2.0070262226221429e-05  2.0139992470318596e-05  1.9711307517815565e-05  1.9647285652595575e-05  1.9260292214879181e-05  1.8939234334558386e-05  1.8994987867139868e-05  1.8488144036277182e-05  1.8364482088022479e-05  1.7931409537469646e-05  1.7976130729775548e-05  1.7598992448588192e-05  1.7254209923538345e-05  1.7279004815384048e-05  1.6810221609122912e-05  1.6877576980834842e-05  1.6499490706397447e-05  1.6367420891227071e-05  1.6016142827752359e-05  1.6064574083023297e-05  1.5809408887941650e-05  1.5444004162457583e-05  1.5487373769979119e-05  1.5086427008161592e-05  1.5127648851357444e-05  1.4798526094616567e-05  1.4595527532914243e-05  1.4352709367700396e-05  1.4397295918606106e-05  1.4045166151964928e-05  1.4095320393477619e-05  1.3777602186800191e-05  1.3660409454123889e-05  1.3340394345741368e-05  1.3380777812818094e-05  1.3137134932017026e-05  1.2886799886901012e-05  1.2917306462038669e-05  1.2688587711952804e-05  1.2438385087382955e-05  1.2463958447277897e-05  1.2229353767653099e-05  1.2102290596625456e-05  1.1855992619729914e-05  1.1833188854798668e-05  1.1565415957263982e-05  1.1603803721608122e-05  1.1407501752830632e-05  1.1183801746159508e-05  1.1215133664880246e-05  1.1050987662484186e-05  1.0811570086965038e-05  1.0837683434305681e-05  1.0610451958381473e-05  1.0575153971564102e-05  1.0356915711212343e-05  1.0395201859823815e-05  1.0156356157022374e-05  1.0172151207330707e-05  9.9561403021040929e-06  9.9856163083418989e-06  9.7821394664919158e-06  9.7159445979521331e-06  9.5311838737402803e-06  9.5508106184463807e-06  9.4407188405432927e-06  9.3076598750159650e-06  9.2892999233547797e-06  9.1613025207071875e-06  9.1797935008885209e-06  9.0597103464750456e-06  9.0318698370233278e-06  8.9457285549832102e-06  8.9450715188005981e-06  8.8880303655841844e-06  8.8933310504524992e-06  8.8836071911227235e-06  8.8803227958688238e-06  8.9286241294595739e-06  8.9197692072658747e-06  9.0059521503562901e-06  9.0926619851577496e-06  9.4444492363552431e-06  9.3767132010604700e-06  1.0034854261444948e-05  9.9036526028496557e-06  2.3506541791631651e-05  8.9169653091075818e-07  3.9197113857809856e-06  1.3229774794164762e-06  2.0769213505621814e-06  1.0967083665523767e-06  8.6491344606001000e-07  9.9121829016188874e-07  6.4091429785410986e-07  4.3584080021845732e-07  5.3942583319786020e-07  2.5316269661588942e-07  3.3489153905210462e-07  1.6889294038270184e-07  1.8400349558957369e-07  1.0914353575431805e-07  1.3931498489689401e-07  7.1563806087644341e-08  8.6215177320019809e-08  4.4242404324240926e-08  4.6935409199256875e-08  2.6940529627941045e-08  3.4749508759851173e-08  1.7309934432568304e-08  2.0067481663649813e-08  9.9491709502017454e-09  1.2910641266782902e-08  8.1290352680784327e-09  5.6824594697490323e-09  4.1820708265179174e-09  4.7609464723862477e-09  3.1923450069088450e-09  1.9956280983396457e-09  1.9889762745606475e-09  1.1701262331091119e-09  1.4443443084925266e-09  7.5744044236520263e-10  7.8668280558137231e-10  4.3705254570883358e-10  5.2709110236447161e-10  2.7526437200728948e-10  3.3154128906622097e-10  2.0463542300093190e-10  1.3323414201665077e-10  1.2561528020287790e-10  1.2805682935537369e-10  8.4383229653164669e-11  7.5358181517204774e-11  6.8845745588919386e-11  6.8247614798344104e-11  6.1545056989906555e-11  6.5127563129307194e-11  7.6308242866406757e-11  7.6143346300669542e-11  9.1117089945770315e-11  1.0487942682980373e-10  1.2235818129446964e-10  1.4633819324291662e-10  2.0369275731113184e-10  3.3047667829216514e-10  2.7462103394084376e-10  5.2398770725345586e-10  4.3509988551323443e-10  7.7992951749149853e-10  7.5261802498077335e-10  1.4196141012415984e-09  1.1627862835469563e-09  1.9095681197238366e-09  2.1273418573582091e-09  3.8664615479817914e-09  2.8773103576102366e-09  6.2115122744565292e-09  5.3596173146813773e-09  7.6142182930945685e-09  1.2773611316147258e-08  9.7512047699368799e-09  1.9815352671302515e-08  1.7597502248216351e-08  3.4536743695209850e-08  2.6138420733448821e-08  4.9360675699457130e-08  4.2125111788898648e-08  8.5736935830129714e-08  6.6076074510053706e-08  1.4154637135857084e-07  1.1285572290851340e-07  1.7408055332867160e-07  1.6747573321583540e-07  2.9467226257967968e-07  3.4909803709460489e-07  3.8169806770949011e-07  5.0906494482036456e-07  5.0347236455115009e-07  7.4004326272278044e-07  9.6346731264446160e-07  9.9760249011782537e-07  1.4738561563052459e-06  1.1778316860305206e-06  2.5402558921614027e-06  6.3090134256891049e-07  1.1441526993057168e-05  3.4188559037362311e-06  4.0416851564920437e-06  3.4900625414619487e-06  3.3915088798452836e-06  3.1447636944617106e-06  2.9449028049660766e-06  2.9672190927953372e-06  2.8065775060480347e-06  2.6523322304133502e-06  2.6741212818529329e-06  2.5234155637662816e-06  2.4729297563241472e-06  2.3614996168294812e-06  2.3789263276764245e-06  2.2633057957041749e-06  2.2793852415724527e-06  2.1853359787695844e-06  2.1534040041123421e-06  2.0736202808386658e-06  2.0862074714346703e-06  2.0036133034042942e-06  2.0012538384756249e-06  1.9244382553615108e-06  1.9298300907468868e-06  1.8651578055695323e-06  1.8158156584135635e-06  1.8233596703615912e-06  1.7726129498868137e-06  1.7441394254870864e-06  1.6962313863866935e-06  1.7019051506485280e-06  1.6538286555778326e-06  1.6390694438088702e-06  1.5939891165114235e-06  1.6002718328942976e-06  1.5562771530404145e-06  1.5382312781281778e-06  1.4982757408057503e-06  1.5035674933957226e-06  1.4724306145860350e-06  1.4353224785519388e-06  1.4392686325540151e-06  1.4040570072762560e-06  1.3905243975174901e-06  1.3507266843014170e-06  1.3561356091938587e-06  1.3135981782586669e-06  1.3187002846209058e-06  1.2834558490132704e-06  1.2675203009878686e-06  1.2411862261769800e-06  1.2449349543096116e-06  1.2233744185118933e-06  1.1911179867393381e-06  1.1932946064025033e-06  1.1588717571402811e-06  1.1623179843695335e-06  1.1352325563668693e-06  1.1179229384633346e-06  1.0954632356284922e-06  1.0978132960289144e-06  1.0749760757285777e-06  1.0541344881691753e-06  1.0568394308014741e-06  1.0345199606240807e-06  1.0195715923781805e-06  9.9709168870992274e-07  9.9962875325852985e-07  9.8162575546373782e-07  9.5881361664607659e-07  9.6056748522747733e-07  9.4029014623904060e-07  9.2175429974907172e-07  9.2366234363024474e-07  9.0173840870118951e-07  8.8380676025524160e-07  8.8634702994034910e-07  8.6889532438701352e-07  8.5579611773537370e-07  8.3885961086134563e-07  8.4086737073136443e-07  8.2090120102994321e-07  8.0856422078772761e-07  8.1132975115832030e-07  7.9075589391691973e-07  7.8964404453258597e-07  7.7066858491631416e-07  7.6073960707650854e-07  7.4649649781210223e-07  7.4858032156689406e-07  7.3549701818735413e-07  7.1874201767040260e-07  7.2051223141238988e-07  7.0482509945183014e-07  6.9865359166788260e-07  6.8028532105601808e-07  6.8278251412261685e-07  6.6313827872360182e-07  6.6549537218493044e-07  6.4920513867673186e-07  6.4182157703530673e-07  6.2958981044445869e-07  6.3133258427412075e-07  6.2129827117170540e-07  6.0626268056707973e-07  6.0727927223018478e-07  5.9109874377342455e-07  5.9270527707952743e-07  5.8021234616782599e-07  5.7161096365442350e-07  5.6111694228035907e-07  5.6222375437234263e-07  5.5125596126092917e-07  5.4130278801157975e-07  5.4262605088378237e-07  5.3161053159553468e-07  5.2458776722832802e-07  5.1312383189648014e-07  5.1439909717036406e-07  5.0565456945703265e-07  4.9472537074629471e-07  4.9374756297095194e-07  4.8194372134591342e-07  4.8327878095577365e-07  4.7266546540403151e-07  4.6686409991886317e-07  4.5700470354054979e-07  4.5839185709610381e-07  4.4997952710327999e-07  4.3922468503350554e-07  4.4019519399351524e-07  4.3265503686721870e-07  4.2421771422771559e-07  4.2272428886382242e-07  4.1316479973878078e-07  4.1454904078775337e-07  4.0505124483756577e-07  4.0101422071051725e-07  3.9206140621057916e-07  3.9367376883121303e-07  3.8289791754463645e-07  3.8450829818254303e-07  3.7556735267524407e-07  3.7238953571028088e-07  3.6333596368292300e-07  3.6483244165554594e-07  3.5496948759687786e-07  3.5502971034636779e-07  3.4917520008702677e-07  3.4180405272446896e-07  3.4040337003965035e-07  3.3278890075924437e-07  3.3378132320063272e-07  3.2795435709464264e-07  3.2046238038121443e-07  3.2074229144277461e-07  3.1236241174855942e-07  3.1320882533262397e-07  3.0643777568257998e-07  3.0158345009110771e-07  2.9655952994438799e-07  2.9731299266756531e-07  2.9211582011541706e-07  2.8594631123942720e-07  2.8658386635044068e-07  2.8083269832880310e-07  2.7793663490628039e-07  2.7117138098211050e-07  2.7199553946408042e-07  2.6447708597935104e-07  2.6525254341012571e-07  2.5930186466180753e-07  2.5460242033498539e-07  2.5541277743443774e-07  2.4955419943372168e-07  2.4851126316871686e-07  2.4340693502588695e-07  2.3926108431634796e-07  2.3945639427085413e-07  2.3285274549959602e-07  2.3384623237272505e-07  2.2793386988447623e-07  2.2601852699197557e-07  2.2059254236144087e-07  2.2153970005055919e-07  2.1540924360891542e-07  2.1632418332486035e-07  2.1128459409305442e-07  2.0943766474499020e-07  2.0457518780504564e-07  2.0538176353771625e-07  2.0005460912439921e-07  2.0012302023936213e-07  1.9667770264800174e-07  1.9283733249564862e-07  1.9322006734532446e-07  1.8967123187392150e-07  1.8690068847975514e-07  1.8294764177322181e-07  1.8335917527832014e-07  1.8027018492017378e-07  1.7627029380945979e-07  1.7654995192287224e-07  1.7310153632973730e-07  1.7008437899046919e-07  1.6944431077594616e-07  1.6523568706144087e-07  1.6585766394017457e-07  1.6187005162124716e-07  1.6091737869992691e-07  1.5690239181442075e-07  1.5734207898037091e-07  1.5352007378115857e-07  1.5098880864769171e-07  1.5150087024060789e-07  1.4780487635412732e-07  1.4705682013518386e-07  1.4398411087017807e-07  1.4148470836909326e-07  1.4159983474560568e-07  1.3781216846350296e-07  1.3838650060665844e-07  1.3493734563377358e-07  1.3478063053477476e-07  1.3170070411396093e-07  1.3094368805964993e-07  1.2792423020140926e-07  1.2835914078974046e-07  1.2553391870634746e-07  1.2510545706096707e-07  1.2263114669124491e-07  1.2056837435007536e-07  1.2088934026635992e-07  1.1801853670810676e-07  1.1678404028916587e-07  1.1409649175830975e-07  1.1445983109874381e-07  1.1156241883902328e-07  1.1170489320880462e-07  1.0869589221043685e-07  1.0913779399367662e-07  1.0657644027381619e-07  1.0566094606127584e-07  1.0326148628022778e-07  1.0361142297213461e-07  1.0169868776590672e-07  9.9511264063460835e-08  9.9823973282091924e-08  9.8051450317981436e-08  9.5568314444191608e-08  9.5849714068429842e-08  9.3310771533542980e-08  9.3462600169807897e-08  9.1256469211054975e-08  8.9810728617424393e-08  9.0059646742660912e-08  8.8329505999090199e-08  8.7328413016269851e-08  8.5174694957360731e-08  8.5476764471879258e-08  8.3072226191130460e-08  8.3369429614325923e-08  8.1282721868668162e-08  8.0601626541622158e-08  7.8910350960418732e-08  7.9098001466995762e-08  7.7353344285352544e-08  7.6030305236161780e-08  7.6240523723708554e-08  7.4822182569540512e-08  7.3890048655396995e-08  7.2140332780743457e-08  7.2359592294367133e-08  7.0388283362493853e-08  7.0604090503446311e-08  6.8905284687089600e-08  6.8231157089077265e-08  6.678131152157