<?xml version="1.0"?>
<VTKFile type="UnstructuredGrid"  version="0.1"  >
<UnstructuredGrid>
<Piece  NumberOfPoints="5161" NumberOfCells="8120">
<Points>
<DataArray  type="Float64"  NumberOfComponents="3"  format="ascii">0 0.01 0  0 0 0  0.01 0 0  0.02 0 0  0.03 0 0  0.04 0 0  0.05 0 0  0.06 0 0  0.07000000000000001 0 0  0.08 0 0  0.09 0 0  0.1 0 0  0.11 0 0  0.12 0 0  0.13 0 0  0.14 0 0  0.15 0 0  0.16 0 0  0.17 0 0  0.18 0 0  0.19 0 0  0.2 0 0  0.21 0 0  0.22 0 0  0.23 0 0  0.24 0 0  0.25 0 0  0.26 0 0  0.27 0 0  0.28 0 0  0.29 0 0  0.3 0 0  0.31 0 0  0.32 0 0  0.33 0 0  0.34 0 0  0.35 0 0  0.36 0 0  0.37 0 0  0.38 0 0  0.39 0 0  0.4 0 0  0.41 0 0  0.42 0 0  0.43 0 0  0.44 0 0  0.45 0 0  0.46 0 0  0.47 0 0  0.48 0 0  0.49 0 0  0.5 0 0  0.51 0 0  0.52 0 0  0.53 0 0  0.54 0 0  0.55 0 0  0.5600000000000001 0 0  0.57 0 0  0.58 0 0  0.59 0 0  0.6 0 0  0.61 0 0  0.62 0 0  0.63 0 0  0.64 0 0  0.65 0 0  0.66 0 0  0.67 0 0  0.68 0 0  0.6899999999999999 0 0  0.7 0 0  0.71 0 0  0.72 0 0  0.73 0 0  0.74 0 0  0.75 0 0  0.76 0 0  0.77 0 0  0.78 0 0  0.79 0 0  0.8 0 0  0.8100000000000001 0 0  0.82 0 0  0.83 0 0  0.84 0 0  0.85 0 0  0.86 0 0  0.87 0 0  0.88 0 0  0.89 0 0  0.9 0 0  0.91 0 0  0.92 0 0  0.93 0 0  0.9399999999999999 0 0  0.95 0 0  0.96 0 0  0.97 0 0  0.98 0 0  0.99 0 0  1 0 0  1.01 0 0  1.02 0 0  1.03 0 0  1.04 0 0  1.05 0 0  1.06 0 0  1.07 0 0  1.08 0 0  1.09 0 0  1.1 0 0  1.11 0 0  1.12 0 0  1.13 0 0  1.14 0 0  1.15 0 0  1.16 0 0  1.17 0 0  1.18 0 0  1.19 0 0  1.2 0 0  1.21 0 0  1.22 0 0  1.23 0 0  1.24 0 0  1.25 0 0  1.26 0 0  1.27 0 0  1.28 0 0  1.29 0 0  1.3 0 0  1.31 0 0  1.32 0 0  1.33 0 0  1.34 0 0  1.35 0 0  1.36 0 0  1.37 0 0  1.38 0 0  1.39 0 0  1.4 0 0  1.41 0 0  1.42 0 0  1.43 0 0  1.44 0 0  1.45 0 0  1.46 0 0  1.47 0 0  1.48 0 0  1.49 0 0  1.5 0 0  1.51 0 0  1.52 0 0  1.53 0 0  1.54 0 0  1.55 0 0  1.56 0 0  1.57 0 0  1.58 0 0  1.59 0 0  1.6 0 0  1.61 0 0  1.62 0 0  1.63 0 0  1.64 0 0  1.65 0 0  1.66 0 0  1.67 0 0  1.68 0 0  1.69 0 0  1.7 0 0  1.71 0 0  1.72 0 0  1.73 0 0  1.74 0 0  1.75 0 0  1.76 0 0  1.77 0 0  1.78 0 0  1.79 0 0  1.8 0 0  1.81 0 0  1.82 0 0  1.83 0 0  1.84 0 0  1.85 0 0  1.86 0 0  1.87 0 0  1.88 0 0  1.89 0 0  1.9 0 0  1.91 0 0  1.92 0 0  1.93 0 0  1.94 0 0  1.95 0 0  1.96 0 0  1.97 0 0  1.98 0 0  1.99 0 0  2 0 0  2.01 0 0  2.02 0 0  2.03 0 0  2.04 0 0  2.05 0 0  2.06 0 0  2.07 0 0  2.08 0 0  2.09 0 0  2.1 0 0  2.11 0 0  2.12 0 0  2.13 0 0  2.14 0 0  2.15 0 0  2.16 0 0  2.17 0 0  2.18 0 0  2.19 0 0  2.2 0 0  2.21 0 0  2.22 0 0  2.23 0 0  2.24 0 0  2.25 0 0  2.26 0 0  2.27 0 0  2.28 0 0  2.29 0 0  2.3 0 0  2.31 0 0  2.32 0 0  2.33 0 0  2.34 0 0  2.35 0 0  2.36 0 0  2.37 0 0  2.38 0 0  2.39 0 0  2.4 0 0  2.41 0 0  2.42 0 0  2.43 0 0  2.44 0 0  2.45 0 0  2.46 0 0  2.47 0 0  2.48 0 0  2.49 0 0  2.5 0 0  2.51 0 0  2.52 0 0  2.53 0 0  2.54 0 0  2.55 0 0  2.56 0 0  2.57 0 0  2.58 0 0  2.59 0 0  2.6 0 0  2.61 0 0  2.62 0 0  2.63 0 0  2.64 0 0  2.65 0 0  2.66 0 0  2.67 0 0  2.68 0 0  2.69 0 0  2.7 0 0  2.71 0 0  2.72 0 0  2.73 0 0  2.74 0 0  2.75 0 0  2.76 0 0  2.77 0 0  2.78 0 0  2.79 0 0  2.8 0 0  2.81 0 0  2.82 0 0  2.83 0 0  2.84 0 0  2.85 0 0  2.86 0 0  2.87 0 0  2.88 0 0  2.89 0 0  2.9 0 0  2.91 0 0  2.92 0 0  2.93 0 0  2.94 0 0  2.95 0 0  2.96 0 0  2.97 0 0  2.98 0 0  2.99 0 0  3 0 0  3.01 0 0  3.02 0 0  3.03 0 0  3.04 0 0  3.05 0 0  3.06 0 0  3.07 0 0  3.08 0 0  3.09 0 0  3.1 0 0  3.11 0 0  3.12 0 0  3.13 0 0  3.14 0 0  3.15 0 0  3.16 0 0  3.17 0 0  3.18 0 0  3.19 0 0  3.2 0 0  3.21 0 0  3.22 0 0  3.23 0 0  3.24 0 0  3.25 0 0  3.26 0 0  3.27 0 0  3.28 0 0  3.29 0 0  3.3 0 0  3.31 0 0  3.32 0 0  3.33 0 0  3.34 0 0  3.35 0 0  3.36 0 0  3.37 0 0  3.38 0 0  3.39 0 0  3.4 0 0  3.41 0 0  3.42 0 0  3.43 0 0  3.44 0 0  3.45 0 0  3.46 0 0  3.47 0 0  3.48 0 0  3.49 0 0  3.5 0 0  3.51 0 0  3.52 0 0  3.53 0 0  3.54 0 0  3.55 0 0  3.56 0 0  3.57 0 0  3.58 0 0  3.59 0 0  3.6 0 0  3.61 0 0  3.62 0 0  3.63 0 0  3.64 0 0  3.65 0 0  3.66 0 0  3.67 0 0  3.68 0 0  3.69 0 0  3.7 0 0  3.71 0 0  3.72 0 0  3.73 0 0  3.74 0 0  3.75 0 0  3.76 0 0  3.77 0 0  3.78 0 0  3.79 0 0  3.8 0 0  3.81 0 0  3.82 0 0  3.83 0 0  3.84 0 0  3.85 0 0  3.86 0 0  3.87 0 0  3.88 0 0  3.89 0 0  3.9 0 0  3.91 0 0  3.92 0 0  3.93 0 0  3.94 0 0  3.95 0 0  3.96 0 0  3.97 0 0  3.98 0 0  3.99 0 0  4 0 0  4.01 -0.03141463462364068 0  4.02 -0.06282151815625525 0  4.03 -0.09421290141928611 0  4.04 -0.1255810390586269 0  4.05 -0.1569181914556893 0  4.06 -0.1882166266370274 0  4.07 -0.2194686221820914 0  4.08 -0.2506664671286087 0  4.09 -0.2818024638751649 0  4.1 -0.3128689300804606 0  4.11 -0.34385820055882 0  4.12 -0.3747626291714495 0  4.13 -0.4055745907130247 0  4.14 -0.4362864827930841 0  4.15 -0.4668907277118119 0  4.16 -0.49737977432971 0  4.17 -0.5277460999307455 0  4.18 -0.5579822120784577 0  4.19 -0.588080650464609 0  4.2 -0.6180339887498953 0  4.21 -0.6478348363962988 0  4.22 -0.677475840490582 0  4.23 -0.7069496875585155 0  4.24 -0.7362491053693565 0  4.25 -0.7653668647301796 0  4.26 -0.7942957812695606 0  4.27 -0.8230287172102163 0  4.28 -0.851558583130146 0  4.29 -0.8798783397118303 0  4.3 -0.9079809994790931 0  4.31 -0.9358596285211457 0  4.32 -0.9635073482034314 0  4.33 -0.9909173368648152 0  4.34 -1.018082831500742 0  4.35 -1.044997129431897 0  4.36 -1.071653589957994 0  4.37 -1.098045635996264 0  4.38 -1.124166755704261 0  4.39 -1.150010504086556 0  4.4 -1.175570504584947 0  4.41 -1.200840450651768 0  4.42 -1.225814107305953 0  4.43 -1.250485312671409 0  4.44 -1.27484797949738 0  4.45 -1.298896096660368 0  4.46 -1.322623730647304 0  4.47 -1.346025027019546 0  4.48 -1.369094211857378 0  4.49 -1.391825593184629 0  4.5 -1.414213562373095 0  4.51 -1.436252595526377 0  4.52 -1.457937254842822 0  4.53 -1.47926218995722 0  4.54 -1.500222139260919 0  4.55 -1.520811931200061 0  4.56 -1.541026485551578 0  4.57 -1.56086081467666 0  4.58 -1.580310024751381 0  4.59 -1.599369316974181 0  4.6 -1.618033988749894 0  4.61 -1.636299434850047 0  4.62 -1.654161148549124 0  4.63 -1.67161472273654 0  4.64 -1.688655851004029 0  4.65 -1.705280328708185 0  4.66 -1.721484054007887 0  4.67 -1.737263028876382 0  4.68 -1.752613360087727 0  4.69 -1.767531260177387 0  4.7 -1.782013048376736 0  4.71 -1.796055151521231 0  4.72 -1.809654104932039 0  4.73 -1.822806553270891 0  4.74 -1.835509251367963 0  4.75 -1.847759065022573 0  4.76 -1.859552971776502 0  4.77 -1.870888061659734 0  4.78 -1.881761537908451 0  4.79 -1.892170717655091 0  4.8 -1.902113032590307 0  4.81 -1.91158602959666 0  4.82 -1.920587371353886 0  4.83 -1.929114836915596 0  4.84 -1.937166322257262 0  4.85 -1.944739840795353 0  4.86 -1.951833523877495 0  4.87 -1.958445621243532 0  4.88 -1.964574501457377 0  4.89 -1.970218652309548 0  4.9 -1.975376681190276 0  4.91 -1.980047315433115 0  4.92 -1.984229402628956 0  4.93 -1.987921910910359 0  4.94 -1.99112392920616 0  4.95 -1.993834667466256 0  4.96 -1.996053456856543 0  4.97 -1.99777974992394 0  4.98 -1.999013120731463 0  4.99 -1.999753264963321 0  5 -2 0  5.01 -1.999753264963321 0  5.02 -1.999013120731463 0  5.03 -1.99777974992394 0  5.04 -1.996053456856543 0  5.05 -1.993834667466256 0  5.06 -1.99112392920616 0  5.07 -1.987921910910359 0  5.08 -1.984229402628956 0  5.09 -1.980047315433115 0  5.1 -1.975376681190276 0  5.11 -1.970218652309548 0  5.12 -1.964574501457377 0  5.13 -1.958445621243532 0  5.14 -1.951833523877495 0  5.15 -1.944739840795353 0  5.16 -1.937166322257262 0  5.17 -1.929114836915596 0  5.18 -1.920587371353886 0  5.19 -1.91158602959666 0  5.2 -1.902113032590307 0  5.21 -1.892170717655091 0  5.22 -1.881761537908451 0  5.23 -1.870888061659734 0  5.24 -1.859552971776503 0  5.25 -1.847759065022573 0  5.26 -1.835509251367963 0  5.27 -1.822806553270891 0  5.28 -1.809654104932039 0  5.29 -1.796055151521231 0  5.3 -1.782013048376736 0  5.31 -1.767531260177387 0  5.32 -1.752613360087727 0  5.33 -1.737263028876382 0  5.34 -1.721484054007888 0  5.35 -1.705280328708185 0  5.36 -1.68865585100403 0  5.37 -1.67161472273654 0  5.38 -1.654161148549124 0  5.39 -1.636299434850047 0  5.4 -1.618033988749894 0  5.41 -1.599369316974181 0  5.42 -1.580310024751381 0  5.43 -1.56086081467666 0  5.44 -1.541026485551578 0  5.45 -1.520811931200061 0  5.46 -1.500222139260919 0  5.47 -1.47926218995722 0  5.48 -1.457937254842822 0  5.49 -1.436252595526377 0  5.5 -1.414213562373095 0  5.51 -1.39182559318463 0  5.52 -1.369094211857378 0  5.53 -1.346025027019547 0  5.54 -1.322623730647304 0  5.55 -1.298896096660368 0  5.56 -1.27484797949738 0  5.57 -1.25048531267141 0  5.58 -1.225814107305953 0  5.59 -1.200840450651769 0  5.6 -1.175570504584947 0  5.61 -1.150010504086557 0  5.62 -1.124166755704261 0  5.63 -1.098045635996264 0  5.64 -1.071653589957994 0  5.65 -1.044997129431897 0  5.66 -1.018082831500742 0  5.67 -0.9909173368648155 0  5.68 -0.9635073482034312 0  5.69 -0.935859628521146 0  5.7 -0.9079809994790929 0  5.71 -0.8798783397118306 0  5.72 -0.8515585831301458 0  5.73 -0.8230287172102166 0  5.74 -0.7942957812695605 0  5.75 -0.7653668647301798 0  5.76 -0.7362491053693571 0  5.77 -0.7069496875585156 0  5.78 -0.6774758404905826 0  5.79 -0.6478348363962989 0  5.8 -0.6180339887498959 0  5.81 -0.5880806504646091 0  5.82 -0.5579822120784582 0  5.83 -0.5277460999307456 0  5.84 -0.4973797743297105 0  5.85 -0.4668907277118119 0  5.86 -0.4362864827930846 0  5.87 -0.4055745907130247 0  5.88 -0.37476262917145 0  5.89 -0.34385820055882 0  5.9 -0.3128689300804611 0  5.91 -0.2818024638751648 0  5.92 -0.2506664671286091 0  5.93 -0.2194686221820913 0  5.94 -0.1882166266370278 0  5.95 -0.1569181914556892 0  5.96 -0.1255810390586272 0  5.97 -0.09421290141928591 0  5.98 -0.06282151815625558 0  5.99 -0.03141463462364053 0  6 -2.449293598294706e-16 0  6.01 0 0  6.02 0 0  6.03 0 0  6.04 0 0  6.05 0 0  6.06 0 0  6.07 0 0  6.08 0 0  6.09 0 0  6.1 0 0  6.11 0 0  6.12 0 0  6.13 0 0  6.14 0 0  6.15 0 0  6.16 0 0  6.17 0 0  6.18 0 0  6.19 0 0  6.2 0 0  6.21 0 0  6.22 0 0  6.23 0 0  6.24 0 0  6.25 0 0  6.26 0 0  6.27 0 0  6.28 0 0  6.29 0 0  6.3 0 0  6.31 0 0  6.32 0 0  6.33 0 0  6.34 0
[...]
<PointData  Scalars="f_1222"> 
<DataArray  type="Float64"  Name="f_1222"  format="ascii">1.0000000000000000e+00  1.0000000000000000e+00  9.7105551964386194e-01  9.4875670472251139e-01  9.2927724743030948e-01  9.1187842577004141e-01  8.9639845489732994e-01  8.8202471625845824e-01  8.6856377797284512e-01  8.5599186466419452e-01  8.4417932160852560e-01  8.3293936670533553e-01  8.2220270103404014e-01  8.1193982143337962e-01  8.0207135960320752e-01  7.9264388240473638e-01  7.8356069380553606e-01  7.7475382764669354e-01  7.6619196954350743e-01  7.5793810407036455e-01  7.4991128744623259e-01  7.4212423811007444e-01  7.3455750373547457e-01  7.2725546485075909e-01  7.2015551993404103e-01  7.1317133099600205e-01  7.0640494337847426e-01  6.9979347131996683e-01  6.9333558370323323e-01  6.8701216905870666e-01  6.8085863429327498e-01  6.7481683604137455e-01  6.6890081001046042e-01  6.6309704995523100e-01  6.5743914345538879e-01  6.5187214883339339e-01  6.4636447817241693e-01  6.4098920488356725e-01  6.3570511411973074e-01  6.3053594139374947e-01  6.2544406957790377e-01  6.2046868119056575e-01  6.1555836331810954e-01  6.1071833434376521e-01  6.0593404033302967e-01  6.0124144628815146e-01  5.9659542405689259e-01  5.9203155581037725e-01  5.8752283897502644e-01  5.8308621090947432e-01  5.7871702534716074e-01  5.7444241816158870e-01  5.7022377540237057e-01  5.6603740952581416e-01  5.6192044103613470e-01  5.5784784411348520e-01  5.5384593477548427e-01  5.4987897404980901e-01  5.4596260882150738e-01  5.4208235375421898e-01  5.3827431221082789e-01  5.3450026216439939e-01  5.3077700244996184e-01  5.2709184910003049e-01  5.2346650579308762e-01  5.1986983973827028e-01  5.1630329922488039e-01  5.1279331706313602e-01  5.0930474692797856e-01  5.0584817528736237e-01  5.0242469781004651e-01  4.9905407168504662e-01  4.9570650340271943e-01  4.9240703510819467e-01  4.8912718967205421e-01  4.8588302828314539e-01  4.8266880824591563e-01  4.7949714079991362e-01  4.7634648775170374e-01  4.7324532000516228e-01  4.7016318944696384e-01  4.6711385115173187e-01  4.6408436061982022e-01  4.6107335889759443e-01  4.5810230924029161e-01  4.5514356861502919e-01  4.5221863793366757e-01  4.4931886917895214e-01  4.4645764890903600e-01  4.4361511928364156e-01  4.4081523720811056e-01  4.3803018440850228e-01  4.3527284859605320e-01  4.3253124503861035e-01  4.2980483423892335e-01  4.2711241159830526e-01  4.2442864991208701e-01  4.2176834407523039e-01  4.1912750305936425e-01  4.1652405758673094e-01  4.1393401030669541e-01  4.1135336146409651e-01  4.0880116252543724e-01  4.0626040850062872e-01  4.0374956677236318e-01  4.0124711865334944e-01  3.9876049482293457e-01  3.9629012685456511e-01  3.9385268591615324e-01  3.9142542489149668e-01  3.8900738098067600e-01  3.8661981135014950e-01  3.8424620068305693e-01  3.8190242016250803e-01  3.7956836451017928e-01  3.7724490469189037e-01  3.7495134866100249e-01  3.7266561109448937e-01  3.7038964505559785e-01  3.6812955358979743e-01  3.6589535229371117e-01  3.6367305196840499e-01  3.6147780896581228e-01  3.5928681085829023e-01  3.5712038183612888e-01  3.5495630158483776e-01  3.5280903593498991e-01  3.5067117976459472e-01  3.4854426365922858e-01  3.4644234035934035e-01  3.4434815258263901e-01  3.4228239721053061e-01  3.4022398933445508e-01  3.3818555533479966e-01  3.3615808876928216e-01  3.3413906561390622e-01  3.3213946229061309e-01  3.3014884852295745e-01  3.2818122839321556e-01  3.2621781407338929e-01  3.2427297624837570e-01  3.2233476652957593e-01  3.2040943881701989e-01  3.1849581602864557e-01  3.1660456204068249e-01  3.1471978138918721e-01  3.1284108923913029e-01  3.1097949199137287e-01  3.0912521690528288e-01  3.0729413473531780e-01  3.0546810216972603e-01  3.0365556843015934e-01  3.0185019239582433e-01  3.0006492892025216e-01  2.9828445774776446e-01  2.9651780007274314e-01  2.9475586153450611e-01  2.9300252112648628e-01  2.9126889570046854e-01  2.8953977593305791e-01  2.8782191677748625e-01  2.8611667638699767e-01  2.8443065467245171e-01  2.8274973616962001e-01  2.8107529569666745e-01  2.7941806283486653e-01  2.7776461306634725e-01  2.7613019488751139e-01  2.7449813466024287e-01  2.7287829455892887e-01  2.7126703015277148e-01  2.6967488311105658e-01  2.6808500861221374e-01  2.6650114297007854e-01  2.6493605593770386e-01  2.6337555784115479e-01  2.6182577071130569e-01  2.6028444544214457e-01  2.5876108864233277e-01  2.5724157252792801e-01  2.5572598052881396e-01  2.5422553828687527e-01  2.5273212978766080e-01  2.5125523933268867e-01  2.4978008092877127e-01  2.4830888700625278e-01  2.4685334000459777e-01  2.4540073068257148e-01  2.4396230582757519e-01  2.4252581185218114e-01  2.4109962829562040e-01  2.3968260132736843e-01  2.3828223123176531e-01  2.3688397576891479e-01  2.3548993807972454e-01  2.3411083435420191e-01  2.3273484157625768e-01  2.3137075080686897e-01  2.3001020495645899e-01  2.2865591241792019e-01  2.2731756060798561e-01  2.2598276542629936e-01  2.2465749395996554e-01  2.2333993951823458e-01  2.2203616263788506e-01  2.2073296026925404e-01  2.1943271020311766e-01  2.1814665317879794e-01  2.1686371501047003e-01  2.1559377272296221e-01  2.1432729714230278e-01  2.1306873078316935e-01  2.1181870309394712e-01  2.1058053945888053e-01  2.0934597621409679e-01  2.0812450778369082e-01  2.0690452552932970e-01  2.0569458200471516e-01  2.0448719421500311e-01  2.0328586292385287e-01  2.0209078304361761e-01  2.0090798361411499e-01  1.9972935424265520e-01  1.9856453105929781e-01  1.9740116629553880e-01  1.9624076367209256e-01  1.9509210862171539e-01  1.9394541084261241e-01  1.9280465116092116e-01  1.9167047273841403e-01  1.9054995411707443e-01  1.8943203945656603e-01  1.8831786662061914e-01  1.8721745017485403e-01  1.8612174862553993e-01  1.8502990827187110e-01  1.8394791148851647e-01  1.8287015359625314e-01  1.8180426528529464e-01  1.8074005530691978e-01  1.7968302614849443e-01  1.7863136531060123e-01  1.7759145676013019e-01  1.7655306499922466e-01  1.7551730569868954e-01  1.7449230183983361e-01  1.7346931228524490e-01  1.7245274170927916e-01  1.7144007405806097e-01  1.7043883747300115e-01  1.6943957273493213e-01  1.6845101943209986e-01  1.6746402083504208e-01  1.6648387718294971e-01  1.6550936062512173e-01  1.6454479947798764e-01  1.6358042353899843e-01  1.6261804312657618e-01  1.6166597420836196e-01  1.6071601819543371e-01  1.5977548241600986e-01  1.5883728684005766e-01  1.5790471127737599e-01  1.5697879334990530e-01  1.5606285425719749e-01  1.5514802719620716e-01  1.5424221775655755e-01  1.5333680884270284e-01  1.5243658940037930e-01  1.5154160686432591e-01  1.5065708705979364e-01  1.4977495603271082e-01  1.4889505488914256e-01  1.4802364320122002e-01  1.4715390613172055e-01  1.4628727053800361e-01  1.4542832407560896e-01  1.4457189763195558e-01  1.4372584539767280e-01  1.4288132105826568e-01  1.4204572657831044e-01  1.4121234693710064e-01  1.4038116810408602e-01  1.3955832864947321e-01  1.3873925554372585e-01  1.3792914262205233e-01  1.3711952459774474e-01  1.3631883637079936e-01  1.3551881707826657e-01  1.3472524836021968e-01  1.3393429711493765e-01  1.3314767840935857e-01  1.3236665023470517e-01  1.3159412550561650e-01  1.3082268618425247e-01  1.3005318295881713e-01  1.2929132909404067e-01  1.2853068473531484e-01  1.2777415227966335e-01  1.2702105252986673e-01  1.2627641854038621e-01  1.2553348309496437e-01  1.2479897992813441e-01  1.2406638245315581e-01  1.2333635575701345e-01  1.2261455025552770e-01  1.2189403364148001e-01  1.2117665090632444e-01  1.2046378931578126e-01  1.1975821835066028e-01  1.1905363920496694e-01  1.1835553601265776e-01  1.1765781769479398e-01  1.1696412555572774e-01  1.1627798900991249e-01  1.1559228857274412e-01  1.1491072923908097e-01  1.1423119846976756e-01  1.1355495196609826e-01  1.1288626120056192e-01  1.1221916503134613e-01  1.1155521208057032e-01  1.1089839892508381e-01  1.1024211443731453e-01  1.0959092320120584e-01  1.0894208708982772e-01  1.0829607770299868e-01  1.0765689916575798e-01  1.0701849106438971e-01  1.0638400780961062e-01  1.0575263638858043e-01  1.0512834337996466e-01  1.0450535387719358e-01  1.0388670130078137e-01  1.0326986534944516e-01  1.0265548292506826e-01  1.0204670654293252e-01  1.0144023930832965e-01  1.0084050926621121e-01  1.0024157070614780e-01  9.9646347981149713e-02  9.9052117102275752e-02  9.8460018939450597e-02  9.7873444194171877e-02  9.7287140710198228e-02  9.6703370759506663e-02  9.6122847147608631e-02  9.5548292835577947e-02  9.4974563349631877e-02  9.4406073900250451e-02  9.3837847700536020e-02  9.3272780081235879e-02  9.2710083148571404e-02  9.2152885575520260e-02  9.1596209929273698e-02  9.1042299183901707e-02  9.0490430561956964e-02  8.9943791260832628e-02  8.9397252992625034e-02  8.8855411535996395e-02  8.8313284699914535e-02  8.7774208101941698e-02  8.7237477134438357e-02  8.6706117694849580e-02  8.6175089147708842e-02  8.5644656841822639e-02  8.5117741044873782e-02  8.4591471429109083e-02  8.4069187539532811e-02  8.3545652745855667e-02  8.3024115078400795e-02  8.2502585709769247e-02  8.1983993422335172e-02  8.1464901730633074e-02  8.0949274041197894e-02  8.0431851473815971e-02  7.9916797062252590e-02  7.9400167442929687e-02  7.8885619966792053e-02  7.8368539440380081e-02  7.7851347489972203e-02  7.7333443323113385e-02  7.6816910421283066e-02  7.6296993951232961e-02  7.5776888051116015e-02  7.5252457192729272e-02  7.4726902655961658e-02  7.4194861495543912e-02  7.3658491121661326e-02  7.3116120716208766e-02  7.2568777535823678e-02  7.2010773783200754e-02  7.1444401558032028e-02  7.0863860984794053e-02  7.0268086332336485e-02  6.9651497767501222e-02  6.8997602493918869e-02  6.8300451597200593e-02  6.7555479752233083e-02  6.6692950576016485e-02  6.5684789153357306e-02  6.4277755172335499e-02  5.9340852552899212e-02  5.5558925058953622e-02  5.2531919335722842e-02  4.9776954841381081e-02  4.7363112869034364e-02  4.5215560946580809e-02  4.3186714789736888e-02  4.1336690912519979e-02  3.9612552251578295e-02  3.8007916908077033e-02  3.6499907863808446e-02  3.5107727788681785e-02  3.3787096054410458e-02  3.2539981564414788e-02  3.1349141855538276e-02  3.0241218968149613e-02  2.9178391082069891e-02  2.8170745883595298e-02  2.7206333235802679e-02  2.6303824289884540e-02  2.5437234476375647e-02  2.4598234983963192e-02  2.3811697354880514e-02  2.3053343936145852e-02  2.2322534916578790e-02  2.1624138573854063e-02  2.0964459984735326e-02  2.0329623373982357e-02  1.9732002475914841e-02  1.9151137861479390e-02  1.8588700703514306e-02  1.8057550428520929e-02  1.7542891719162412e-02  1.7048832989875265e-02  1.6573678994214507e-02  1.6124130641150619e-02  1.5687858127345043e-02  1.5267171565614024e-02  1.4862080859830788e-02  1.4478057722251797e-02  1.4104407609838551e-02  1.3750600271484991e-02  1.3406993676351184e-02  1.3075377233131296e-02  1.2762008096158991e-02  1.2457189127795721e-02  1.2165761319822345e-02  1.1885085044219349e-02  1.1619072953443953e-02  1.1360510493358979e-02  1.1113317986209868e-02  1.0874639737061129e-02  1.0649131061048183e-02  1.0430281351447315e-02  1.0220508399974473e-02  1.0018589019445370e-02  9.8282381902000671e-03  9.6442424691961601e-03  9.4669035149444643e-03  9.2992204186235234e-03  9.1369646120435036e-03  8.9812787906631518e-03  8.8346999624015973e-03  8.6930029780145981e-03  8.5579235354039784e-03  8.4295214720035080e-03  8.3089962462634913e-03  8.1926493229430609e-03  8.0811610427244367e-03  7.9760547147244409e-03  7.8753296640892163e-03  7.7812871037273648e-03  7.6906281864614701e-03  7.6052965288230072e-03  7.5240707871313799e-03  7.4481812791852035e-03  7.3760459882470358e-03  7.3094403180477968e-03  7.2457794744485351e-03  7.1866552081688339e-03  7.1305879169290039e-03  7.0784671231567172e-03  7.0306722833142826e-03  6.9852898578521266e-03  6.9435422270143687e-03  6.9049926120070453e-03  6.8703647415676444e-03  6.8381291641321645e-03  6.8089289190289178e-03  6.7828158003811322e-03  6.7592575965037720e-03  6.7388103740215546e-03  6.7204116190794898e-03  6.7048277692282185e-03  6.6912149791489321e-03  6.6799922189647067e-03  6.6710472571927821e-03  6.6645031519978375e-03  6.6599789733968332e-03  6.6580741134521755e-03  6.6582991290740955e-03  6.6606620353487954e-03  6.6651893615723382e-03  6.6719576985294496e-03  6.6805696575011030e-03  6.6914903290415184e-03  6.7051529637801770e-03  6.7209211422585412e-03  6.7393762181477994e-03  6.7598253819286828e-03  6.7832966941266783e-03  6.8091504467559820e-03  6.8381623548013082e-03  6.8699365937156896e-03  6.9048317453998514e-03  6.9418671481895778e-03  6.9825162046228822e-03  7.0254705482201123e-03  7.0723640874937373e-03  7.1223122419898643e-03  7.1761288355114633e-03  7.2333578450324539e-03  7.2933263297964360e-03  7.3581076255983674e-03  7.4265086888432993e-03  7.4991488894089560e-03  7.5743525204468578e-03  7.6545607412056502e-03  7.7388252286936139e-03  7.8260150711238225e-03  7.9186894884911863e-03  8.0145152351746105e-03  8.1162688285266217e-03  8.2229125100401566e-03  8.3342050024208143e-03  8.4487128185563899e-03  8.5697682569869562e-03  8.6957803979521575e-03  8.8253637551737284e-03  8.9610631789027052e-03  9.1001010906120866e-03  9.2465067784320860e-03  9.3969884976086680e-03  9.5543426564062162e-03  9.7171240064885707e-03  9.8856117942020399e-03  1.0057167373605978e-02  1.0236454288501425e-02  1.0421267543241039e-02  1.0609403319830049e-02  1.0804555421042125e-02  1.1002911691834332e-02  1.1209826189261418e-02  1.1420594379955131e-02  1.1637578171560525e-02  1.1856387655552993e-02  1.2084140365070321e-02  1.2315401697570455e-02  1.2554092191914624e-02  1.2797762688666101e-02  1.3043681865734858e-02  1.3296916059362908e-02  1.3552112490872063e-02  1.3816275098935033e-02  1.4085461828740037e-02  1.4358544462659727e-02  1.4631894926354238e-02  1.4914223986264774e-02  1.5195493519067666e-02  1.5485091782913270e-02  1.5773171409861796e-02  1.6069394348680058e-02  1.6366684254480911e-02  1.6669656117336121e-02  1.6974636103270182e-02  1.7277686456677845e-02  1.7586925292707778e-02  1.7893793674652679e-02  1.8208183415443342e-02  1.8522686161932679e-02  1.8840008792654576e-02  1.9152374858067828e-02  1.9469701731860745e-02  1.9789508855669834e-02  2.0106523556407595e-02  2.0426275889487828e-02  2.0740700792456983e-02  2.1059412755848238e-02  2.1380016289032057e-02  2.1697008029843489e-02  2.2015056034434356e-02  2.2327231457472081e-02  2.2644348851342366e-02  2.2963388897695638e-02  2.3277391423326826e-02  2.3595434773015688e-02  2.3915126807048666e-02  2.4232483377106862e-02  2.4541268620540447e-02  2.4850896509111309e-02  2.4586303154692742e-02  2.4346729526319201e-02  2.4130172172899526e-02  2.3925348015086459e-02  2.3729308364263239e-02  2.3540734227241785e-02  2.3358040377461371e-02  2.3178592512037050e-02  2.3004684523704591e-02  2.2834737463308503e-02  2.2666843606328795e-02  2.2503098823613243e-02  2.2341926670468262e-02  2.2183806757798952e-02  2.2028168953161426e-02  2.1875480573728661e-02  2.1724216721664968e-02  2.1575459304172456e-02  2.1427746944672733e-02  2.1281986984156374e-02  2.1137854986672047e-02  2.0996254780117605e-02  2.0855763414706019e-02  2.0717044142305952e-02  2.0579588346629343e-02  2.0444412476240965e-02  2.0310100545451331e-02  2.0176818811462844e-02  2.0045844650811412e-02  1.9915873623555361e-02  1.9786742791866454e-02  1.9659596248495427e-02  1.9533338293892179e-02  1.9408727619866100e-02  1.9284727721585338e-02  1.9161776085062997e-02  1.9040488341195094e-02  1.8919607483675889e-02  1.8799957636718257e-02  1.8680986948976627e-02  1.8562857089680005e-02  1.8446362614790348e-02  1.8330346299861883e-02  1.8215146413605877e-02  1.8100897366850503e-02  1.7988268221403630e-02  1.7876233152286106e-02  1.7765721342133649e-02  1.7655747592472407e-02  1.7546466171267785e-02  1.7438055824485751e-02  1.7330936410162440e-02  1.7224215153352603e-02  1.7118051477927422e-02  1.7012511870591374e-02  1.6908214890811939e-02  1.6804326982140544e-02  1.6701715258989544e-02  1.6599496112201961e-02  1.6498024602794724e-02  1.6397387694888327e-02  1.6297950766543494e-02  1.6198883539219389e-02  1.6100253902167665e-02  1.6002753701498302e-02  1.5905500374850692e-02  1.5808894245193938e-02  1.5712951006557622e-02  1.5618223014856892e-02  1.5523852812761205e-02  1.5429755013617086e-02  1.5336577792154971e-02  1.5243768936362328e-02  1.5152000033124677e-02  1.5060461060896478e-02  1.4969536289184324e-02  1.4879162465098173e-02  1.4789940313861355e-02  1.4700982893719398e-02  1.4612371667268271e-02  1.4524891271541239e-02  1.4437803804460296e-02  1.4351014181541945e-02  1.4265003211774846e-02  1.4179319087675876e-02  1.4094583982945238e-02  1.4009975889417558e-02  1.3925965487118035e-02  1.3842404115706572e-02  1.3759788888688045e-02  1.3677250868513121e-02  1.3595611225912938e-02  1.3514022162861778e-02  1.3432991073755807e-02  1.3352339300774006e-02  1.3272675260616578e-02  1.3193187729450020e-02  1.3114533634490354e-02  1.3036145453076325e-02  1.2957973372187351e-02  1.2880563043327273e-02  1.2803514699476571e-02  1.2727305452895259e-02  1.2651189406933737e-02  1.2575247685665260e-02  1.2500114327581541e-02  1.2425221670721368e-02  1.2351131765154490e-02  1.2277207321636778e-02  1.2203745614996341e-02  1.2130813577345974e-02  1.2058722182249123e-02  1.1986766455165930e-02  1.1914997562557228e-02  1.1843975142001138e-02  1.1773098298482949e-02  1.1702627690968258e-02  1.1632464258449752e-02  1.1563055279304206e-02  1.1493781884631940e-02  1.1425232648652917e-02  1.1356810867018024e-02  1.1288697964317916e-02  1.1221305786253246e-02  1.1153960181237739e-02  1.1087042103049611e-02  1.1020444546976713e-02  1.0954588607743246e-02  1.0888834504563242e-02  1.0823468695484126e-02  1.0758343260406129e-02  1.0693915080845856e-02  1.0629548738901129e-02  1.0565663476080043e-02  1.0502142530637837e-02  1.0439382654139594e-02  1.0376721300767451e-02  1.0314294469463345e-02  1.0252571767871831e-02  1.0190998115057141e-02  1.0129800867787480e-02  1.0068893622541332e-02  1.0008654502227168e-02  9.9485297616893308e-03  9.8885688093480386e-03  9.8292004134313844e-03  9.7699275243382754e-03  9.7109269146322362e-03  9.6522382887841065e-03  9.5942161092174988e-03  9.5363513403043006e-03  9.4786312905040040e-03  9.4214624201361015e-03  9.3644097385415393e-03  9.3075521198197810e-03  9.2511584266009670e-03  9.1949303475152688e-03  9.1393359962037863e-03  9.0838226386983686e-03  9.0286967544229556e-03  8.9737131602813866e-03  8.9189433590436008e-03  8.8647078696471905e-03  8.8105472870901765e-03  8.7567683441229678e-03  8.7032682553682041e-03  8.6503153945287070e-03  8.5974612240232260e-03  8.5447795809232806e-03  8.4926051763959207e-03  8.4405173974437375e-03  8.3889949922264159e-03  8.3375124242629078e-03  8.2864509921868647e-03  8.2355076954439034e-03  8.1850119303608446e-03  8.1346500693770321e-03  8.0844987476622557e-03  8.0348677184245848e-03  7.9852954051729871e-03  7.9360122311908088e-03  7.8869569821479208e-03  7.8384111614676257e-03  7.7899344216305066e-03  7.7417546240965791e-03  7.6940470213311962e-03  7.6463068006287927e-03  7.5988673215823012e-03  7.5516383287674710e-03  7.5049111320489416e-03  7.4582111567373975e-03  7.4118654120070007e-03  7.3655545953592938e-03  7.3196441323134876e-03  7.2737366039219414e-03  7.2280067514381968e-03  7.1827530042314269e-03  7.1375221926796581e-03  7.0925078131742524e-03  7.0479691104520384e-03  7.0034371435897941e-03  6.9592341098580687e-03  6.9151174487498785e-03  6.8712248732084157e-03  6.8275116374241383e-03  6.7841647411731034e-03  6.7408125736489197e-03  6.6976991801992675e-03  6.6546769680473940e-03  6.6120847735806161e-03  6.5695070690036071e-03  6.5271722000744469e-03  6.4849434205783742e-03  6.4431292178097994e-03  6.4013711272775014e-03  6.3598409880720984e-03  6.3187097623313860e-03  6.2775506119603468e-03  6.2365261245878626e-03  6.1956642005471050e-03  6.1552061639202618e-03  6.1147998351035781e-03  6.0747643052981928e-03  6.0347596443650333e-03  5.9949072829932476e-03  5.9554400222240787e-03  5.9159630522296240e-03  5.8767242352422