<?xml version="1.0"?>
<VTKFile type="UnstructuredGrid"  version="0.1"  >
<UnstructuredGrid>
<Piece  NumberOfPoints="4989" NumberOfCells="7775">
<Points>
<DataArray  type="Float64"  NumberOfComponents="3"  format="ascii">0 0.01 0  0 0 0  0.01 0 0  0.02 0 0  0.03 0 0  0.04 0 0  0.05 0 0  0.06 0 0  0.07000000000000001 0 0  0.08 0 0  0.09 0 0  0.1 0 0  0.11 0 0  0.12 0 0  0.13 0 0  0.14 0 0  0.15 0 0  0.16 0 0  0.17 0 0  0.18 0 0  0.19 0 0  0.2 0 0  0.21 0 0  0.22 0 0  0.23 0 0  0.24 0 0  0.25 0 0  0.26 0 0  0.27 0 0  0.28 0 0  0.29 0 0  0.3 0 0  0.31 0 0  0.32 0 0  0.33 0 0  0.34 0 0  0.35 0 0  0.36 0 0  0.37 0 0  0.38 0 0  0.39 0 0  0.4 0 0  0.41 0 0  0.42 0 0  0.43 0 0  0.44 0 0  0.45 0 0  0.46 0 0  0.47 0 0  0.48 0 0  0.49 0 0  0.5 0 0  0.51 0 0  0.52 0 0  0.53 0 0  0.54 0 0  0.55 0 0  0.5600000000000001 0 0  0.57 0 0  0.58 0 0  0.59 0 0  0.6 0 0  0.61 0 0  0.62 0 0  0.63 0 0  0.64 0 0  0.65 0 0  0.66 0 0  0.67 0 0  0.68 0 0  0.6899999999999999 0 0  0.7 0 0  0.71 0 0  0.72 0 0  0.73 0 0  0.74 0 0  0.75 0 0  0.76 0 0  0.77 0 0  0.78 0 0  0.79 0 0  0.8 0 0  0.8100000000000001 0 0  0.82 0 0  0.83 0 0  0.84 0 0  0.85 0 0  0.86 0 0  0.87 0 0  0.88 0 0  0.89 0 0  0.9 0 0  0.91 0 0  0.92 0 0  0.93 0 0  0.9399999999999999 0 0  0.95 0 0  0.96 0 0  0.97 0 0  0.98 0 0  0.99 0 0  1 0 0  1.01 0 0  1.02 0 0  1.03 0 0  1.04 0 0  1.05 0 0  1.06 0 0  1.07 0 0  1.08 0 0  1.09 0 0  1.1 0 0  1.11 0 0  1.12 0 0  1.13 0 0  1.14 0 0  1.15 0 0  1.16 0 0  1.17 0 0  1.18 0 0  1.19 0 0  1.2 0 0  1.21 0 0  1.22 0 0  1.23 0 0  1.24 0 0  1.25 0 0  1.26 0 0  1.27 0 0  1.28 0 0  1.29 0 0  1.3 0 0  1.31 0 0  1.32 0 0  1.33 0 0  1.34 0 0  1.35 0 0  1.36 0 0  1.37 0 0  1.38 0 0  1.39 0 0  1.4 0 0  1.41 0 0  1.42 0 0  1.43 0 0  1.44 0 0  1.45 0 0  1.46 0 0  1.47 0 0  1.48 0 0  1.49 0 0  1.5 0 0  1.51 0 0  1.52 0 0  1.53 0 0  1.54 0 0  1.55 0 0  1.56 0 0  1.57 0 0  1.58 0 0  1.59 0 0  1.6 0 0  1.61 0 0  1.62 0 0  1.63 0 0  1.64 0 0  1.65 0 0  1.66 0 0  1.67 0 0  1.68 0 0  1.69 0 0  1.7 0 0  1.71 0 0  1.72 0 0  1.73 0 0  1.74 0 0  1.75 0 0  1.76 0 0  1.77 0 0  1.78 0 0  1.79 0 0  1.8 0 0  1.81 0 0  1.82 0 0  1.83 0 0  1.84 0 0  1.85 0 0  1.86 0 0  1.87 0 0  1.88 0 0  1.89 0 0  1.9 0 0  1.91 0 0  1.92 0 0  1.93 0 0  1.94 0 0  1.95 0 0  1.96 0 0  1.97 0 0  1.98 0 0  1.99 0 0  2 0 0  2.01 0 0  2.02 0 0  2.03 0 0  2.04 0 0  2.05 0 0  2.06 0 0  2.07 0 0  2.08 0 0  2.09 0 0  2.1 0 0  2.11 0 0  2.12 0 0  2.13 0 0  2.14 0 0  2.15 0 0  2.16 0 0  2.17 0 0  2.18 0 0  2.19 0 0  2.2 0 0  2.21 0 0  2.22 0 0  2.23 0 0  2.24 0 0  2.25 0 0  2.26 0 0  2.27 0 0  2.28 0 0  2.29 0 0  2.3 0 0  2.31 0 0  2.32 0 0  2.33 0 0  2.34 0 0  2.35 0 0  2.36 0 0  2.37 0 0  2.38 0 0  2.39 0 0  2.4 0 0  2.41 0 0  2.42 0 0  2.43 0 0  2.44 0 0  2.45 0 0  2.46 0 0  2.47 0 0  2.48 0 0  2.49 0 0  2.5 0 0  2.51 0 0  2.52 0 0  2.53 0 0  2.54 0 0  2.55 0 0  2.56 0 0  2.57 0 0  2.58 0 0  2.59 0 0  2.6 0 0  2.61 0 0  2.62 0 0  2.63 0 0  2.64 0 0  2.65 0 0  2.66 0 0  2.67 0 0  2.68 0 0  2.69 0 0  2.7 0 0  2.71 0 0  2.72 0 0  2.73 0 0  2.74 0 0  2.75 0 0  2.76 0 0  2.77 0 0  2.78 0 0  2.79 0 0  2.8 0 0  2.81 0 0  2.82 0 0  2.83 0 0  2.84 0 0  2.85 0 0  2.86 0 0  2.87 0 0  2.88 0 0  2.89 0 0  2.9 0 0  2.91 0 0  2.92 0 0  2.93 0 0  2.94 0 0  2.95 0 0  2.96 0 0  2.97 0 0  2.98 0 0  2.99 0 0  3 0 0  3.01 0 0  3.02 0 0  3.03 0 0  3.04 0 0  3.05 0 0  3.06 0 0  3.07 0 0  3.08 0 0  3.09 0 0  3.1 0 0  3.11 0 0  3.12 0 0  3.13 0 0  3.14 0 0  3.15 0 0  3.16 0 0  3.17 0 0  3.18 0 0  3.19 0 0  3.2 0 0  3.21 0 0  3.22 0 0  3.23 0 0  3.24 0 0  3.25 0 0  3.26 0 0  3.27 0 0  3.28 0 0  3.29 0 0  3.3 0 0  3.31 0 0  3.32 0 0  3.33 0 0  3.34 0 0  3.35 0 0  3.36 0 0  3.37 0 0  3.38 0 0  3.39 0 0  3.4 0 0  3.41 0 0  3.42 0 0  3.43 0 0  3.44 0 0  3.45 0 0  3.46 0 0  3.47 0 0  3.48 0 0  3.49 0 0  3.5 0 0  3.51 0 0  3.52 0 0  3.53 0 0  3.54 0 0  3.55 0 0  3.56 0 0  3.57 0 0  3.58 0 0  3.59 0 0  3.6 0 0  3.61 0 0  3.62 0 0  3.63 0 0  3.64 0 0  3.65 0 0  3.66 0 0  3.67 0 0  3.68 0 0  3.69 0 0  3.7 0 0  3.71 0 0  3.72 0 0  3.73 0 0  3.74 0 0  3.75 0 0  3.76 0 0  3.77 0 0  3.78 0 0  3.79 0 0  3.8 0 0  3.81 0 0  3.82 0 0  3.83 0 0  3.84 0 0  3.85 0 0  3.86 0 0  3.87 0 0  3.88 0 0  3.89 0 0  3.9 0 0  3.91 0 0  3.92 0 0  3.93 0 0  3.94 0 0  3.95 0 0  3.96 0 0  3.97 0 0  3.98 0 0  3.99 0 0  4 0 0  4.01 0 0  4.02 0 0  4.03 0 0  4.04 0 0  4.05 0 0  4.06 0 0  4.07 0 0  4.08 0 0  4.09 0 0  4.1 0 0  4.11 0 0  4.12 0 0  4.13 0 0  4.14 0 0  4.15 0 0  4.16 0 0  4.17 0 0  4.18 0 0  4.19 0 0  4.2 0 0  4.21 0 0  4.22 0 0  4.23 0 0  4.24 0 0  4.25 0 0  4.26 0 0  4.27 0 0  4.28 0 0  4.29 0 0  4.3 0 0  4.31 0 0  4.32 0 0  4.33 0 0  4.34 0 0  4.35 0 0  4.36 0 0  4.37 0 0  4.38 0 0  4.39 0 0  4.4 0 0  4.41 0 0  4.42 0 0  4.43 0 0  4.44 0 0  4.45 0 0  4.46 0 0  4.47 0 0  4.48 0 0  4.49 0 0  4.5 0 0  4.51 0 0  4.52 0 0  4.53 0 0  4.54 0 0  4.55 0 0  4.56 0 0  4.57 0 0  4.58 0 0  4.59 0 0  4.6 0 0  4.61 0 0  4.62 0 0  4.63 0 0  4.64 0 0  4.65 0 0  4.66 0 0  4.67 0 0  4.68 0 0  4.69 0 0  4.7 0 0  4.71 0 0  4.72 0 0  4.73 0 0  4.74 0 0  4.75 0 0  4.76 -0.1255810390586241 0  4.77 -0.2506664671286032 0  4.78 -0.3747626291714523 0  4.79 -0.49737977432971 0  4.8 -0.6180339887498927 0  4.81 -0.7362491053693513 0  4.82 -0.8515585831301485 0  4.83 -0.9635073482034314 0  4.84 -1.071653589957992 0  4.85 -1.175570504584943 0  4.86 -1.274847979497382 0  4.87 -1.369094211857378 0  4.88 -1.457937254842822 0  4.89 -1.541026485551576 0  4.9 -1.618033988749897 0  4.91 -1.688655851004031 0  4.92 -1.752613360087727 0  4.93 -1.809654104932038 0  4.94 -1.859552971776504 0  4.95 -1.902113032590308 0  4.96 -1.937166322257262 0  4.97 -1.964574501457377 0  4.98 -1.984229402628956 0  4.99 -1.996053456856543 0  5 -2 0  5.01 -1.996053456856543 0  5.02 -1.984229402628956 0  5.03 -1.964574501457377 0  5.04 -1.937166322257262 0  5.05 -1.902113032590308 0  5.06 -1.859552971776505 0  5.07 -1.809654104932037 0  5.08 -1.752613360087727 0  5.09 -1.688655851004031 0  5.1 -1.618033988749898 0  5.11 -1.541026485551576 0  5.12 -1.457937254842822 0  5.13 -1.369094211857378 0  5.14 -1.274847979497382 0  5.15 -1.175570504584943 0  5.16 -1.071653589957992 0  5.17 -0.9635073482034312 0  5.18 -0.851558583130149 0  5.19 -0.7362491053693513 0  5.2 -0.6180339887498926 0  5.21 -0.4973797743297105 0  5.22 -0.3747626291714526 0  5.23 -0.2506664671286038 0  5.24 -0.1255810390586245 0  5.25 -2.449293598294706e-16 0  5.26 0 0  5.27 0 0  5.28 0 0  5.29 0 0  5.3 0 0  5.31 0 0  5.32 0 0  5.33 0 0  5.34 0 0  5.35 0 0  5.36 0 0  5.37 0 0  5.38 0 0  5.39 0 0  5.4 0 0  5.41 0 0  5.42 0 0  5.43 0 0  5.44 0 0  5.45 0 0  5.46 0 0  5.47 0 0  5.48 0 0  5.49 0 0  5.5 0 0  5.51 0 0  5.52 0 0  5.53 0 0  5.54 0 0  5.55 0 0  5.56 0 0  5.57 0 0  5.58 0 0  5.59 0 0  5.6 0 0  5.61 0 0  5.62 0 0  5.63 0 0  5.64 0 0  5.65 0 0  5.66 0 0  5.67 0 0  5.68 0 0  5.69 0 0  5.7 0 0  5.71 0 0  5.72 0 0  5.73 0 0  5.74 0 0  5.75 0 0  5.76 0 0  5.77 0 0  5.78 0 0  5.79 0 0  5.8 0 0  5.81 0 0  5.82 0 0  5.83 0 0  5.84 0 0  5.85 0 0  5.86 0 0  5.87 0 0  5.88 0 0  5.89 0 0  5.9 0 0  5.91 0 0  5.92 0 0  5.93 0 0  5.94 0 0  5.95 0 0  5.96 0 0  5.97 0 0  5.98 0 0  5.99 0 0  6 0 0  6.01 0 0  6.02 0 0  6.03 0 0  6.04 0 0  6.05 0 0  6.06 0 0  6.07 0 0  6.08 0 0  6.09 0 0  6.1 0 0  6.11 0 0  6.12 0 0  6.13 0 0  6.14 0 0  6.15 0 0  6.16 0 0  6.17 0 0  6.18 0 0  6.19 0 0  6.2 0 0  6.21 0 0  6.22 0 0  6.23 0 0  6.24 0 0  6.25 0 0  6.26 0 0  6.27 0 0  6.28 0 0  6.29 0 0  6.3 0 0  6.31 0 0  6.32 0 0  6.33 0 0  6.34 0 0  6.35 0 0  6.36 0 0  6.37 0 0  6.38 0 0  6.39 0 0  6.4 0 0  6.41 0 0  6.42 0 0  6.43 0 0  6.44 0 0  6.45 0 0  6.46 0 0  6.47 0 0  6.48 0 0  6.49 0 0  6.5 0 0  6.51 0 0  6.52 0 0  6.53 0 0  6.54 0 0  6.55 0 0  6.56 0 0  6.57 0 0  6.58 0 0  6.59 0 0  6.6 0 0  6.61 0 0  6.62 0 0  6.63 0 0  6.64 0 0  6.65 0 0  6.66 0 0  6.67 0 0  6.68 0 0  6.69 0 0  6.7 0 0  6.71 0 0  6.72 0 0  6.73 0 0  6.74 0 0  6.75 0 0  6.76 0 0  6.77 0 0  6.78 0 0  6.79 0 0  6.8 0 0  6.81 0 0  6.82 0 0  6.83 0 0  6.84 0 0  6.85 0 0  6.86 0 0  6.87 0 0  6.88 0 0  6.89 0 0  6.9 0 0  6.91 0 0  6.92 0 0  6.93 0 0  6.94 0 0  6.95 0 0  6.96 0 0  6.97 0 0  6.98 0 0  6.99 0 0  7 0 0  7.01 0 0  7.02 0 0  7.03 0 0  7.04 0 0  7.05 0 0  7.06 0 0  7.07 0 0  7.08 0 0  7.09 0 0  7.1 0 0  7.11 0 0  7.12 0 0  7.13 0 0  7.14 0 0  7.15 0 0  7.16 0 0  7.17 0 0  7.18 0 0  7.19 0 0  7.2 0 0  7.21 0 0  7.22 0 0  7.23 0 0  7.24 0 0  7.25 0 0  7.26 0 0  7.27 0 0  7.28 0 0  7.29 0 0  7.3 0 0  7.31 0 0  7.32 0 0  7.33 0 0  7.34 0 0  7.35 0 0  7.36 0 0  7.37 0 0  7.38 0 0  7.39 0 0  7.4 0 0  7.41 0 0  7.42 0 0  7.43 0 0  7.44 0 0  7.45 0 0  7.46 0 0  7.47 0 0  7.48 0 0  7.49 0 0  7.5 0 0  7.51 0 0  7.52 0 0  7.53 0 0  7.54 0 0  7.55 0 0  7.56 0 0  7.57 0 0  7.58 0 0  7.59 0 0  7.6 0 0  7.61 0 0  7.62 0 0  7.63 0 0  7.64 0 0  7.65 0 0  7.66 0 0  7.67 0 0  7.68 0 0  7.69 0 0  7.7 0 0  7.71 0 0  7.72 0 0  7.73 0 0  7.74 0 0  7.75 0 0  7.76 0 0  7.77 0 0  7.78 0 0  7.79 0 0  7.8 0 0  7.81 0 0  7.82 0 0  7.83 0 0  7.84 0 0  7.85 0 0  7.86 0 0  7.87 0 0  7.88 0 0  7.89 0 0  7.9 0 0  7.91 0 0  7.92 0 0  7.93 0 0  7.94 0 0  7.95 0 0  7.96 0 0  7.97 0 0  7.98 0 0  7.99 0 0  8 0 0  8.01 0 0  8.02 0 0  8.029999999999999 0 0  8.039999999999999 0 0  8.050000000000001 0 0  8.06 0 0  8.07 0 0  8.08 0 0  8.09 0 0  8.1 0 0  8.109999999999999 0 0  8.119999999999999 0 0  8.130000000000001 0 0  8.140000000000001 0 0  8.15 0 0  8.16 0 0  8.17 0 0  8.18 0 0  8.19 0 0  8.199999999999999 0 0  8.210000000000001 0 0  8.220000000000001 0 0  8.23 0 0  8.24 0 0  8.25 0 0  8.26 0 0  8.27 0 0  8.279999999999999 0 0  8.289999999999999 0 0  8.300000000000001 0 0  8.31 0 0  8.32 0 0  8.33 0 0  8.34 0 0  8.35 0 0  8.359999999999999 0 0  8.369999999999999 0 0  8.380000000000001 0 0  8.390000000000001 0 0  8.4 0 0  8.41 0 0  8.42 0 0  8.43 0 0  8.44 0 0  8.449999999999999 0 0  8.460000000000001 0 0  8.470000000000001 0 0  8.48 0 0  8.49 0 0  8.5 0 0  8.51 0 0  8.52 0 0  8.529999999999999 0 0  8.539999999999999 0 0  8.550000000000001 0 0  8.56 0 0  8.57 0 0  8.58 0 0  8.59 0 0  8.6 0 0  8.609999999999999 0 0  8.619999999999999 0
[...]
<PointData  Scalars="f_2320"> 
<DataArray  type="Float64"  Name="f_2320"  format="ascii">1.0000000000000000e+00  1.0000000000000000e+00  9.9738184596791291e-01  9.9543651871271577e-01  9.9376549672038172e-01  9.9229263096526821e-01  9.9101673083195985e-01  9.8984358573475362e-01  9.8875871776712854e-01  9.8775250709915285e-01  9.8682397019396328e-01  9.8594432310300983e-01  9.8511415132640556e-01  9.8432347658749730e-01  9.8356916254912330e-01  9.8285024927920328e-01  9.8216602455724389e-01  9.8150401517093233e-01  9.8086319827714685e-01  9.8024524012215952e-01  9.7964955328842496e-01  9.7907265147663969e-01  9.7851491550001135e-01  9.7797694949527403e-01  9.7745831374079872e-01  9.7694820335229648e-01  9.7645356594122878e-01  9.7597395614955107e-01  9.7550506691524574e-01  9.7504628734557863e-01  9.7459883887871657e-01  9.7416230893555389e-01  9.7373449707942383e-01  9.7331506662629197e-01  9.7290516575679076e-01  9.7250440453243270e-01  9.7210722457058552e-01  9.7171926671189512e-01  9.7133931837582033e-01  9.7096706505327901e-01  9.7060128923568101e-01  9.7024174961446119e-01  9.6988807927759013e-01  9.6953800747474794e-01  9.6919137919803577e-01  9.6884979822519479e-01  9.6851294056974480e-01  9.6818085308228219e-01  9.6785410377628278e-01  9.6753255985541764e-01  9.6721608842215667e-01  9.6690536194925514e-01  9.6660010549614728e-01  9.6629690165465087e-01  9.6599792130266515e-01  9.6570224450015885e-01  9.6541069677704616e-01  9.6512302204710576e-01  9.6483793113090166e-01  9.6455532302460312e-01  9.6427686470426421e-01  9.6400228004119759e-01  9.6373060936205579e-01  9.6346175640681253e-01  9.6319613836131335e-01  9.6293353074180754e-01  9.6267185319258908e-01  9.6241307092930317e-01  9.6215692726121527e-01  9.6190281541301970e-01  9.6165082080049769e-01  9.6140149913731920e-01  9.6115463290397918e-01  9.6090987754214841e-01  9.6066751896437463e-01  9.6042694929406902e-01  9.6018811060575970e-01  9.5995151560142888e-01  9.5971656573217201e-01  9.5948413667933863e-01  9.5925400245413528e-01  9.5902545466259381e-01  9.5879889217136005e-01  9.5857297906339867e-01  9.5834921424331654e-01  9.5812739163757343e-01  9.5790752871638296e-01  9.5768962810728775e-01  9.5747407637688720e-01  9.5726028559684051e-01  9.5704855897409857e-01  9.5683868794088045e-01  9.5662999944736016e-01  9.5642282547373847e-01  9.5621606329042974e-01  9.5601093082414179e-01  9.5580723671894996e-01  9.5560453899733477e-01  9.5540278537523982e-01  9.5520245112070057e-01  9.5500335303845829e-01  9.5480442786326358e-01  9.5460662917317585e-01  9.5440937703389039e-01  9.5421323371233890e-01  9.5401803241345007e-01  9.5382319324799258e-01  9.5362874282473775e-01  9.5343550102897379e-01  9.5324328876155828e-01  9.5305125695049653e-01  9.5286050608920059e-01  9.5267046608117689e-01  9.5248153410577763e-01  9.5229354939189292e-01  9.5210573895427431e-01  9.5191907583089252e-01  9.5173338140533537e-01  9.5154818395292129e-01  9.5136362098933192e-01  9.5118037223139917e-01  9.5099791652589749e-01  9.5081622842833424e-01  9.5063511986454641e-01  9.5045454113967709e-01  9.5027454468339179e-01  9.5009497330148884e-01  9.4991614197173135e-01  9.4973746285589855e-01  9.4956005964802759e-01  9.4938351519969311e-01  9.4920839678971791e-01  9.4903452687973111e-01  9.4886145444298553e-01  9.4868943435784847e-01  9.4851751338424417e-01  9.4834642588368079e-01  9.4817570693177922e-01  9.4800579080108760e-01  9.4783651608254638e-01  9.4766771554464313e-01  9.4749961206481026e-01  9.4733202017741225e-01  9.4716495449901184e-01  9.4699883173490584e-01  9.4683351340886424e-01  9.4666820275444818e-01  9.4650358356416053e-01  9.4633923026315780e-01  9.4617553257834663e-01  9.4601232898280618e-01  9.4584928559137138e-01  9.4568628630804463e-01  9.4552376528477822e-01  9.4536158366354239e-01  9.4519946176287239e-01  9.4503769253574876e-01  9.4487579952382905e-01  9.4471455282907191e-01  9.4455381175306208e-01  9.4439337572391502e-01  9.4423327537800417e-01  9.4407386077583211e-01  9.4391499930886380e-01  9.4375614643223793e-01  9.4359803953588683e-01  9.4344030700424786e-01  9.4328338306060500e-01  9.4312710836779512e-01  9.4297141054896449e-01  9.4281624267730080e-01  9.4266168555223873e-01  9.4250757623064185e-01  9.4235358474023190e-01  9.4220033472105391e-01  9.4204768805357719e-01  9.4189529488616230e-01  9.4174312828619178e-01  9.4159162038868338e-01  9.4144063140632117e-01  9.4128955980469342e-01  9.4113901000216638e-01  9.4098857487493970e-01  9.4083841785587530e-01  9.4068838898388352e-01  9.4053788988463971e-01  9.4038775937842833e-01  9.4023786685723831e-01  9.4008811480404020e-01  9.3993868425848603e-01  9.3978929159734259e-01  9.3963994638824555e-01  9.3949095733220267e-01  9.3934217012969923e-01  9.3919309261160455e-01  9.3904444897187123e-01  9.3889611233276893e-01  9.3874796889957524e-01  9.3860027174699667e-01  9.3845254364643660e-01  9.3830548594557794e-01  9.3815896329764914e-01  9.3801236635834850e-01  9.3786562246807026e-01  9.3771893123986694e-01  9.3757214432560787e-01  9.3742493240159663e-01  9.3727823165516588e-01  9.3713191639254967e-01  9.3698593950173548e-01  9.3684051146146796e-01  9.3669532273373146e-01  9.3655033327820680e-01  9.3640572559404756e-01  9.3626112059109401e-01  9.3611679333278675e-01  9.3597260702271234e-01  9.3582848832510979e-01  9.3568462759924675e-01  9.3554090235257970e-01  9.3539732434059497e-01  9.3525415692282654e-01  9.3511105626395163e-01  9.3496806717256131e-01  9.3482503832940578e-01  9.3468155926772978e-01  9.3453810293436246e-01  9.3439454716246395e-01  9.3425079655743193e-01  9.3410699567323952e-01  9.3396382366823527e-01  9.3382113991491156e-01  9.3367822718634030e-01  9.3353598595581644e-01  9.3339430019896319e-01  9.3325250695045003e-01  9.3311111416415260e-01  9.3296974332038385e-01  9.3282867173452022e-01  9.3268776490915928e-01  9.3254682088527563e-01  9.3240582668918326e-01  9.3226515025345114e-01  9.3212465350498075e-01  9.3198369590162766e-01  9.3184305486623564e-01  9.3170261088881412e-01  9.3156219707076438e-01  9.3142181994563744e-01  9.3128194334358638e-01  9.3114218320940345e-01  9.3100281382950356e-01  9.3086370657722628e-01  9.3072444496229689e-01  9.3058495364571936e-01  9.3044520121493979e-01  9.3030504608268494e-01  9.3016426003332964e-01  9.3002381923226152e-01  9.2988360319100316e-01  9.2974366381095952e-01  9.2960420506189489e-01  9.2946491518027141e-01  9.2932574661033218e-01  9.2918685965844094e-01  9.2904813895582139e-01  9.2890921652529768e-01  9.2877055018945520e-01  9.2863201536993278e-01  9.2849355808229206e-01  9.2835520845680719e-01  9.2821723100234910e-01  9.2807950186932375e-01  9.2794156825088825e-01  9.2780394645624631e-01  9.2766653025974588e-01  9.2752893173639006e-01  9.2739179459198917e-01  9.2725500789051407e-01  9.2711784873041181e-01  9.2698117451220252e-01  9.2684485316910947e-01  9.2670847020061264e-01  9.2657198001044883e-01  9.2643574357952996e-01  9.2629964541649346e-01  9.2616327447828894e-01  9.2602702623948330e-01  9.2589075734456194e-01  9.2575450275951909e-01  9.2561841576690052e-01  9.2548228325593240e-01  9.2534614743599941e-01  9.2521037719611732e-01  9.2507483931789924e-01  9.2493889441608257e-01  9.2480332251652320e-01  9.2466800848667463e-01  9.2453277337408346e-01  9.2439759940865562e-01  9.2426280300840236e-01  9.2412801383852927e-01  9.2399344627277313e-01  9.2385897597652267e-01  9.2372420385200915e-01  9.2358906437078914e-01  9.2345352630147370e-01  9.2331745222353145e-01  9.2318066115381048e-01  9.2304405513467158e-01  9.2290751680780780e-01  9.2277111079064200e-01  9.2263503564063776e-01  9.2249902920167837e-01  9.2236305721934364e-01  9.2222728720954816e-01  9.2209160631190790e-01  9.2195569252678145e-01  9.2181997960182105e-01  9.2168434555874745e-01  9.2154875488956134e-01  9.2141322681809124e-01  9.2127791530197523e-01  9.2114269234068602e-01  9.2100726192424676e-01  9.2087210490427551e-01  9.2073682553786662e-01  9.2060182950864866e-01  9.2046700100446155e-01  9.2033204950974057e-01  9.2019694922162965e-01  9.2006196563833331e-01  9.1992698609656320e-01  9.1979175825160608e-01  9.1965675042017681e-01  9.1952164976250206e-01  9.1938681349395801e-01  9.1925210464461315e-01  9.1911748951870875e-01  9.1898293578993107e-01  9.1884855736870164e-01  9.1871403768288062e-01  9.1857969057996414e-01  9.1844537658118797e-01  9.1831109992023074e-01  9.1817683291052021e-01  9.1804284247864987e-01  9.1790899231176293e-01  9.1777517745762216e-01  9.1764150088221053e-01  9.1750759266709292e-01  9.1737383045399201e-01  9.1724010251189791e-01  9.1710621584828456e-01  9.1697216324167341e-01  9.1683814563268928e-01  9.1670404591697152e-01  9.1656950903467183e-01  9.1643487665750389e-01  9.1630004647485452e-01  9.1616470799798899e-01  9.1602925595024220e-01  9.1589338148673527e-01  9.1575738791585259e-01  9.1562114017029783e-01  9.1548458529483889e-01  9.1534763230777771e-01  9.1521066692052189e-01  9.1507357083177510e-01  9.1493608146990679e-01  9.1479870474493574e-01  9.1466129750605363e-01  9.1452374351386556e-01  9.1438623107302830e-01  9.1424831512017646e-01  9.1411008888647938e-01  9.1397122808396447e-01  9.1383192209077724e-01  9.1369202857077192e-01  9.1355161700456111e-01  9.1341066742794130e-01  9.1326937829285904e-01  9.1312760460416365e-01  9.1298516759091874e-01  9.1284264649211222e-01  9.1269990314237004e-01  9.1255633840256756e-01  9.1241246397160058e-01  9.1226785094303953e-01  9.1212270666152440e-01  9.1197671954045556e-01  9.1182993079813046e-01  9.1168218575532478e-01  9.1153319468003891e-01  9.1138301625734175e-01  9.1123174872337476e-01  9.1107920938131615e-01  9.1092526243515859e-01  9.1076979218733378e-01  9.1061272466512799e-01  9.1045434111332912e-01  9.1029427112891359e-01  9.1013277726749375e-01  9.0996970200877070e-01  9.0980501779625511e-01  9.0963889521055019e-01  9.0947131665581704e-01  9.0930188277446700e-01  9.0913024565368761e-01  9.0895612639233514e-01  9.0877934228800683e-01  9.0859982491041202e-01  9.0841731510329204e-01  9.0823154430981656e-01  9.0804233083824371e-01  9.0784944386853417e-01  9.0765300948100247e-01  9.0745258017557440e-01  9.0724801754958762e-01  9.0703905368622517e-01  9.0682505817096859e-01  9.0660570551810737e-01  9.0638079878828748e-01  9.0615097640227471e-01  9.0591480583371686e-01  9.0567204613632912e-01  9.0542179338510731e-01  9.0516380019977627e-01  9.0489991014637428e-01  9.0462711473628865e-01  9.0434514421153056e-01  9.0405449063721000e-01  9.0375393394979864e-01  9.0344205912736586e-01  9.0311858536572165e-01  9.0278167143642740e-01  9.0243169424120784e-01  9.0207113572713793e-01  9.0169584767794708e-01  9.0130544656973255e-01  9.0089870483657819e-01  9.0047449031769877e-01  9.0002980110684772e-01  8.9956419197152915e-01  8.9907797575988513e-01  8.9857133654782195e-01  8.9804033420373564e-01  8.9748440012595931e-01  8.9690318838679861e-01  8.9628891229680518e-01  8.9564143998378709e-01  8.9495785799449645e-01  8.9423742144648388e-01  8.9347906352016493e-01  8.9268288168141963e-01  8.9184262633472400e-01  8.9095476444086685e-01  8.9000762458690497e-01  8.8900019571317312e-01  8.8792383701369615e-01  8.8677806676407311e-01  8.8558159933843461e-01  8.8428834652256871e-01  8.8290255852225219e-01  8.8141121768880359e-01  8.7981267995785895e-01  8.7810165006560470e-01  8.7622297159150264e-01  8.7417477453019787e-01  8.7193124529716348e-01  8.6947170476235913e-01  8.6670214585986227e-01  8.6361964412230463e-01  8.5997043270204365e-01  8.5575735323016577e-01  8.5046192335186821e-01  8.4166822453493850e-01  7.7226162558496658e-01  7.1960013785931598e-01  6.7382817113611382e-01  6.3241877751541842e-01  5.9440940336265224e-01  5.5957077485328988e-01  5.2791393758864191e-01  4.9924678418754781e-01  4.7348095426814768e-01  4.5044865335580403e-01  4.3015223347478970e-01  4.1221434383780997e-01  3.9673703418100614e-01  3.8350576514212392e-01  3.7214584205488538e-01  3.6278257820540238e-01  3.5506445533094860e-01  3.4905892926570586e-01  3.4438145496780748e-01  3.4082878507113878e-01  3.3831755793529505e-01  3.3666290780010855e-01  3.3567999721710223e-01  3.3519132132239821e-01  3.3504914783122314e-01  3.3519132168250509e-01  3.3567999771969331e-01  3.3666290637299912e-01  3.3831754919468499e-01  3.4082877602583234e-01  3.4438143762623280e-01  3.4905887844234962e-01  3.5506428475400376e-01  3.6278216940824187e-01  3.7214456514887795e-01  3.8350279171742535e-01  3.9672806182982900e-01  4.1221620205330139e-01  4.3014213868842727e-01  4.5039167901098248e-01  4.7350047100657111e-01  4.9921141453887546e-01  5.2797436053955871e-01  5.5961526958553898e-01  5.9415169354218245e-01  6.3198350539997394e-01  6.7258336957819687e-01  7.1593626808325450e-01  7.6134703756621480e-01  8.1374278600775640e-01  8.1881931441814348e-01  8.2237629499091558e-01  8.2523443743932678e-01  8.2739566561108790e-01  8.2926723483797193e-01  8.3087330229678880e-01  8.3231080661380852e-01  8.3360301237849344e-01  8.3478722430954244e-01  8.3586434064984583e-01  8.3686040186537813e-01  8.3777373320605830e-01  8.3862750056953883e-01  8.3943009168457305e-01  8.4018235537957375e-01  8.4088499971935837e-01  8.4156087578351801e-01  8.4219704764533299e-01  8.4279401428376444e-01  8.4335783860125790e-01  8.4389084498389855e-01  8.4439335370561175e-01  8.4486584332618997e-01  8.4531855433520042e-01  8.4575179449594029e-01  8.4616342000162714e-01  8.4655377495826678e-01  8.4692681938141767e-01  8.4728160851835665e-01  8.4762598686348678e-01  8.4795099016916187e-01  8.4825688650286191e-01  8.4854880121079812e-01  8.4882721495858282e-01  8.4909178454735523e-01  8.4934271554938079e-01  8.4958701524605695e-01  8.4981923762076228e-01  8.5003958776083233e-01  8.5025050123564794e-01  8.5045211646252827e-01  8.5064354566456635e-01  8.5082495318385609e-01  8.5099935408341976e-01  8.5116589830819622e-01  8.5132475714733813e-01  8.5147596082982868e-01  8.5161939266241371e-01  8.5175511511322999e-01  8.5188326099018052e-01  8.5200493707544300e-01  8.5211999480856659e-01  8.5223161735268704e-01  8.5233699512456040e-01  8.5243690495729751e-01  8.5253159028913439e-01  8.5262114156583668e-01  8.5270773172138237e-01  8.5278931078349063e-01  8.5286594377153058e-01  8.5293801122017698e-01  8.5300540775079958e-01  8.5306863200439409e-01  8.5312805900458299e-01  8.5318337470066852e-01  8.5323463104699715e-01  8.5328350381975537e-01  8.5332854938411939e-01  8.5336980193686995e-01  8.5340751531851711e-01  8.5344182665059121e-01  8.5347264386320865e-01  8.5349999211892447e-01  8.5352407389021301e-01  8.5354485805621882e-01  8.5356287990900837e-01  8.5357835200694021e-01  8.5359125534223312e-01  8.5360160109975125e-01  8.5361008624095136e-01  8.5361578396383375e-01  8.5361870759857850e-01  8.5361889131630930e-01  8.5361633234319056e-01  8.5361145656267035e-01  8.5360431885520505e-01  8.5359502759376937e-01  8.5358359982639642e-01  8.5357004372257317e-01  8.5355434458612656e-01  8.5353668554557638e-01  8.5351705524056820e-01  8.5349547611307319e-01  8.5347198049041340e-01  8.5344661038190239e-01  8.5341934194634494e-01  8.5339019834719954e-01  8.5335921257024538e-01  8.5332697388992040e-01  8.5329307776491903e-01  8.5325748940267399e-01  8.5322024428751420e-01  8.5318127319921611e-01  8.5314126323914097e-01  8.5309973069147760e-01  8.5305663602696502e-01  8.5301212130323811e-01  8.5296617802393293e-01  8.5291886299696684e-01  8.5287013240164067e-01  8.5282022424963388e-01  8.5276915694699962e-01  8.5271687593938117e-01  8.5266343244053333e-01  8.5260877024916704e-01  8.5255300714076532e-01  8.5249608750895312e-01  8.5243806885650431e-01  8.5237897690693787e-01  8.5231911834562446e-01  8.5225817156486117e-01  8.5219607956037768e-01  8.5213285468413358e-01  8.5206849318209343e-01  8.5200312319160953e-01  8.5193668483687401e-01  8.5186951846204839e-01  8.5180156747532221e-01  8.5173265944736010e-01  8.5166290017032686e-01  8.5159222677334623e-01  8.5152063172645753e-01  8.5144813984276579e-01  8.5137481956697214e-01  8.5130060081898440e-01  8.5122573816760772e-01  8.5115010804634617e-01  8.5107349759840334e-01  8.5099617477656297e-01  8.5091807246487894e-01  8.5083920226996568e-01  8.5075971593502830e-01  8.5067953350741565e-01  8.5059856983813453e-01  8.5051679995301721e-01  8.5043436214018275e-01  8.5035117300779506e-01  8.5026733037334234e-01  8.5018283182580490e-01  8.5009780145007718e-01  8.5001214971382644e-01  8.4992586320179031e-01  8.4983919014559439e-01  8.4975204418056061e-01  8.4966424152775510e-01  8.4957601851234665e-01  8.4948730028963826e-01  8.4939805410130220e-01  8.4930842307834487e-01  8.4921819671032339e-01  8.4912749861634462e-01  8.4903624175975856e-01  8.4894439404191324e-01  8.4885196764249937e-01  8.4875921156545375e-01  8.4866603434967336e-01  8.4857222221031969e-01  8.4847808578203743e-01  8.4838354448263076e-01  8.4828851156704321e-01  8.4819300988199253e-01  8.4809734537576720e-01  8.4800125395052872e-01  8.4790494235056812e-01  8.4780832124034511e-01  8.4771116418777692e-01  8.4761344733668620e-01  8.4751514546757167e-01  8.4741615869898379e-01  8.4731643154374758e-01  8.4721650298879014e-01  8.4711628682162765e-01  8.4701580987591107e-01  8.4691521594217767e-01  8.4681432227963171e-01  8.4671309536713901e-01  8.4661162849356941e-01  8.4650983686486247e-01  8.4640763505327166e-01  8.4630515795551287e-01  8.4620231304797566e-01  8.4609907575501875e-01  8.4599546033007211e-01  8.4589162828869968e-01  8.4578748594231201e-01  8.4568291636650783e-01  8.4557816191276669e-01  8.4547314118102579e-01  8.4536770443455844e-01  8.4526218641078710e-01  8.4515636566254992e-01  8.4505055440066679e-01  8.4494464469401565e-01  8.4483855725195733e-01  8.4473236462863721e-01  8.4462581679515658e-01  8.4451906275646260e-01  8.4441187815034824e-01  8.4430438317767831e-01  8.4419646530807435e-01  8.4408823409442624e-01  8.4397971559338059e-01  8.4387102127720004e-01  8.4376228660703434e-01  8.4365330440587261e-01  8.4354412069670426e-01  8.4343496827534015e-01  8.4332574218091938e-01  8.4321627281524525e-01  8.4310684368523181e-01  8.4299736245314583e-01  8.4288772485174035e-01  8.4277794357447444e-01  8.4266824902061976e-01  8.4255854144136211e-01  8.4244861211300504e-01  8.4233856898071202e-01  8.4222803297489268e-01  8.4211690980152054e-01  8.4200540922600808e-01  8.4189343794287785e-01  8.4178091453091031e-01  8.4166791683449871e-01  8.4155491262570092e-01  8.4144157113607476e-01  8.4132829670198817e-01  8.4121499191916438e-01  8.4110154473561283e-01  8.4098795446228780e-01  8.4087438179428020e-01  8.4076073197538026e-01  8.4064680647704615e-01  8.4053291329665902e-01  8.4041894945284668e-01  8.4030489576516121e-01  8.4019077405085019e-01  8.4007680767886772e-01  8.3996289371857602e-01  8.3984873612215893e-01  8.3973472909746538e-01  8.3962078422524555e-01  8.3950662746641247e-01  8.3939275813741265e-01  8.3927908306490717e-01  8.3916510318469029e-01  8.3905141168477193e-01  8.3893789672792052e-01  8.3882418110171975e-01  8.3871016600789561e-01  8.3859601269771777e-01  8.3848162379010338e-01  8.3836677627298206e-01  8.3825180192615023e-01  8.3813657894572458e-01  8.3802118544579707e-01  8.3790573208792163e-01  8.3778999891442396e-01  8.3767402437933469e-01  8.3755807248542624e-01  8.3744202937274459e-01  8.3732545520773038e-01  8.3720890097339873e-01  8.3709226740256193e-01  8.3697542756387433e-01  8.3685839414335383e-01  8.3674154438021453e-01  8.3662455509557776e-01  8.3650763384381854e-01  8.3639067296185088e-01  8.3627327392601858e-01  8.3615543094460376e-01  8.3603743020650700e-01  8.3591915233070202e-01  8.3580030428017305e-01  8.3568158241012613e-01  8.3556263890337001e-01  8.3544387830497402e-01  8.3532519861117172e-01  8.3520642420649194e-01  8.3508753511487377e-01  8.3496867344425008e-01  8.3484974003526025e-01  8.3473051031953860e-01  8.3461127728900308e-01  8.3449193309911140e-01  8.3437243302993458e-01  8.3425278690212501e-01  8.3413319066222369e-01  8.3401353618752572e-01  8.3389355005634036e-01  8.3377357804244157e-01  8.3365352691217820e-01  8.3353313933467